
  **** **** ******  **  PROGRAM STARTED AT               2018-06-24 19:26:12.677
 ***** ** ***  *** **   PROGRAM STARTED ON                                tcpc01
 **    ****   ******    PROGRAM STARTED BY                                hutter
 ***** **    ** ** **   PROGRAM PROCESS ID                                  1707
  **** **  *******  **  PROGRAM STARTED IN  /data/hutter/pseudo/UZH2018/PBE/K/q9

 CP2K| version string:                    CP2K version 7.0 (Development Version)
 CP2K| source code revision number:                                    svn:18485
 CP2K| cp2kflags: libint fftw3 libxc libderiv_max_am1=5 libint_max_am=6 spglib  
 CP2K| is freely available from                            https://www.cp2k.org/
 CP2K| Program compiled at                         Wed Jun 20 10:41:43 CEST 2018
 CP2K| Program compiled on                                                tcpc01
 CP2K| Program compiled for                                                local
 CP2K| Data directory path                        /data/hutter/CURRENT/cp2k/data
 CP2K| Input file name                                                     K.inp

 GLOBAL| Method name                                                        ATOM
 GLOBAL| Project name                                                    PROJECT
 GLOBAL| Preferred FFT library                                             FFTW3
 GLOBAL| Preferred diagonalization lib.                                       SL
 GLOBAL| Run type                                                   ENERGY_FORCE
 GLOBAL| All-to-all communication in single precision                          F
 GLOBAL| FFTs using library dependent lengths                                  F
 GLOBAL| Global print level                                               MEDIUM
 GLOBAL| Total number of message passing processes                             1
 GLOBAL| Number of threads for this process                                    1
 GLOBAL| This output is from process                                           0
 GLOBAL| CPU model name :  Intel(R) Xeon(R) CPU           X5570  @ 2.93GHz

 MEMORY| system memory details [Kb]
 MEMORY|                        rank 0           min           max       average
 MEMORY| MemTotal             37009584      37009584      37009584      37009584
 MEMORY| MemFree              32388808      32388808      32388808      32388808
 MEMORY| Buffers                296468        296468        296468        296468
 MEMORY| Cached                2035216       2035216       2035216       2035216
 MEMORY| Slab                   271936        271936        271936        271936
 MEMORY| SReclaimable           203652        203652        203652        203652
 MEMORY| MemLikelyFree        34924144      34924144      34924144      34924144


 *** Fundamental physical constants (SI units) ***

 *** Literature: B. J. Mohr and B. N. Taylor,
 ***             CODATA recommended values of the fundamental physical
 ***             constants: 2006, Web Version 5.1
 ***             http://physics.nist.gov/constants

 Speed of light in vacuum [m/s]                             2.99792458000000E+08
 Magnetic constant or permeability of vacuum [N/A**2]       1.25663706143592E-06
 Electric constant or permittivity of vacuum [F/m]          8.85418781762039E-12
 Planck constant (h) [J*s]                                  6.62606896000000E-34
 Planck constant (h-bar) [J*s]                              1.05457162825177E-34
 Elementary charge [C]                                      1.60217648700000E-19
 Electron mass [kg]                                         9.10938215000000E-31
 Electron g factor [ ]                                     -2.00231930436220E+00
 Proton mass [kg]                                           1.67262163700000E-27
 Fine-structure constant                                    7.29735253760000E-03
 Rydberg constant [1/m]                                     1.09737315685270E+07
 Avogadro constant [1/mol]                                  6.02214179000000E+23
 Boltzmann constant [J/K]                                   1.38065040000000E-23
 Atomic mass unit [kg]                                      1.66053878200000E-27
 Bohr radius [m]                                            5.29177208590000E-11

 *** Conversion factors ***

 [u] -> [a.u.]                                              1.82288848426455E+03
 [Angstrom] -> [Bohr] = [a.u.]                              1.88972613288564E+00
 [a.u.] = [Bohr] -> [Angstrom]                              5.29177208590000E-01
 [a.u.] -> [s]                                              2.41888432650478E-17
 [a.u.] -> [fs]                                             2.41888432650478E-02
 [a.u.] -> [J]                                              4.35974393937059E-18
 [a.u.] -> [N]                                              8.23872205491840E-08
 [a.u.] -> [K]                                              3.15774647902944E+05
 [a.u.] -> [kJ/mol]                                         2.62549961709828E+03
 [a.u.] -> [kcal/mol]                                       6.27509468713739E+02
 [a.u.] -> [Pa]                                             2.94210107994716E+13
 [a.u.] -> [bar]                                            2.94210107994716E+08
 [a.u.] -> [atm]                                            2.90362800883016E+08
 [a.u.] -> [eV]                                             2.72113838565563E+01
 [a.u.] -> [Hz]                                             6.57968392072181E+15
 [a.u.] -> [1/cm] (wave numbers)                            2.19474631370540E+05
 [a.u./Bohr**2] -> [1/cm]                                   5.14048714338585E+03
 
 DBCSR| Multiplication driver                                               BLAS
 DBCSR| Multrec recursion limit                                              512
 DBCSR| Multiplication stack size                                           1000
 DBCSR| Maximum elements for images                                    UNLIMITED
 DBCSR| Multiplicative factor virtual images                                   1
 DBCSR| Multiplication size stacks                                             3



                           ****  ******  ****   ****   
                          **  ** ****** **  ** ******  
                          ******   **   **  ** **  **  
                          **  **   **    ****  **  **  
                                                       
                             University of Zurich      
                                 2009 - 2015           
                                                       
                                 Version 0.0           
                                                                   


 Atomic Energy Calculation             Potassium [K]         Atomic number:   19


 *******************************************************************************
 ************************** Calculate Reference States *************************
 *******************************************************************************

 METHOD    | Restricted Kohn-Sham Calculation
 METHOD    | Relativistic Calculation using Douglas-Kroll 3rd order
 FUNCTIONAL| ROUTINE=NEW
 FUNCTIONAL| PBE:
 FUNCTIONAL| J.P.Perdew, K.Burke, M.Ernzerhof, Phys. Rev. Letter, vol. 77, n 18,
 FUNCTIONAL|  pp. 3865-3868, (1996){spin unpolarized}                           

 Electronic structure
    Total number of core electrons                                          0.00
    Total number of valence electrons                                      19.00
    Total number of electrons                                              19.00
    Multiplicity                                                   not specified
    S      2.00  2.00  2.00  1.00
    P      6.00  6.00


 *******************************************************************************
                  Iteration          Convergence                     Energy [au]
 *******************************************************************************
                          1         6.65771                    -592.811646852642
                          2         2.85853                    -592.398171140985
                          3        0.950335                    -601.086720499738
                          4        0.306373                    -601.935888756616
                          5        0.172301E-01                -602.013110907850
                          6        0.136045E-02                -602.013322833820
                          7        0.375724E-03                -602.013324469439
                          8        0.416722E-05                -602.013324581436
                          9        0.403848E-06                -602.013324581591
                         10        0.251733E-06                -602.013324581589
                         11        0.173811E-06                -602.013324581593
                         12        0.274821E-07                -602.013324581591

 Energy components [Hartree]           Total Energy ::         -602.013324581591
                                        Band Energy ::         -353.118715670895
                                     Kinetic Energy ::          615.603489979280
                                   Potential Energy ::        -1217.616814560871
                                      Virial (-V/T) ::            1.977923833086
                                        Core Energy ::         -827.296732451118
                                          XC Energy ::          -33.422253834052
                                     Coulomb Energy ::          258.705661703578
                                        Confinement ::            0.000001401156

 Orbital energies  State     L     Occupation   Energy[a.u.]          Energy[eV]

                       1     0          2.000    -129.356512        -3519.969713
                       2     0          2.000     -12.973958         -353.039362
                       3     0          2.000      -1.291445          -35.142011
                       4     0          1.000      -0.079804           -2.171589
                       5     0          0.000       0.089456            2.434215
                       6     0          0.000       0.375743           10.224486

                       1     1          6.000     -10.281545         -279.775064
                       2     1          6.000      -0.684302          -18.620796
                       3     1          0.000      -0.016673           -0.453696
                       4     1          0.000       0.146071            3.974803

                       1     2          0.000       0.025171            0.684949

                       1     3          0.000       0.118760            3.231615


 Total Electron Density at R=0:                                      7280.719918

 *******************************************************************************
 ********************* Optimize Pseudopotential Parameters *********************
 *******************************************************************************

 POWELL| Start optimization procedure

 POWELL| Total number of parameters in optimization                           11

 POWELL| Initial errors of target values

 Reference configuration          1               Method number                1
    L    N    Occupation      Eigenvalue [eV]           dE [eV]          dCharge 
    0    1          2.00       -35.1475925965 SC  -0.005581[ 7]    -0.000003[ X]
    0    2          1.00        -2.1706990114 VA   0.000890[74]     0.000274[ X]
    0    3          0.00         2.4317524965 U1  -0.002463[ X]     0.000442[ X]
    0    4          0.00        10.2070497140 U2  -0.017436[ X]     0.001186[ 0]
    1    1          6.00       -18.6149499532 SC   0.005846[ 9]     0.000005[ X]
    1    2          0.00        -0.4580096997 U1  -0.004313[ 0]     0.001363[ X]
    1    3          0.00         3.9614590093 U2  -0.013344[ X]     0.001637[ 0]
    2    1          0.00         0.6974418308 U1   0.012493[10]    -0.009400[ 0]
    3    1          0.00         3.2317114525 U1   0.000096[ X]    -0.000001[ X]

 Number of target values reached:                                      10 of  16

 POWELL| Start optimization   1 of total 100               rhobeg =   0.00020000
 POWELL| Inital value of function                                   2.2582117159
 POWELL| Reached   6% of maximal function calls                     2.2582117159
 POWELL| Reached   8% of maximal function calls                     2.2582117159
 POWELL| Reached  10% of maximal function calls                     2.2582117159
 POWELL| Reached  12% of maximal function calls                     2.2582117159
 POWELL| Reached  14% of maximal function calls                     2.2582117159
 POWELL| Reached  16% of maximal function calls                     2.2582117159
 POWELL| Reached  18% of maximal function calls                     2.2582117159
 POWELL| Reached  20% of maximal function calls                     2.2582117159
 POWELL| Reached  22% of maximal function calls                     2.2582117159
 POWELL| Reached  24% of maximal function calls                     2.2582117159
 POWELL| Reached  26% of maximal function calls                     2.2582117159
 POWELL| Reached  28% of maximal function calls                     2.2422263414
 POWELL| Reached  30% of maximal function calls                     2.2422263414
 POWELL| Reached  32% of maximal function calls                     2.2311440009
 POWELL| Reached  34% of maximal function calls                     2.2311440009
 POWELL| Reached  36% of maximal function calls                     2.2311440009
 POWELL| Reached  38% of maximal function calls                     2.2311440009
 POWELL| Reached  40% of maximal function calls                     2.2311440009
 POWELL| Reached  42% of maximal function calls                     2.2311440009
 POWELL| Reached  44% of maximal function calls                     2.2311440009
 POWELL| Reached  46% of maximal function calls                     2.2311440009
 POWELL| Reached  48% of maximal function calls                     2.2311440009
 POWELL| Reached  50% of maximal function calls                     2.2311440009
 POWELL| Reached  52% of maximal function calls                     2.2311440009
 POWELL| Reached  54% of maximal function calls                     2.2311440009
 POWELL| Reached  56% of maximal function calls                     2.2311440009
 POWELL| Reached  57% of maximal function calls                     2.2311440009
 POWELL| Reached  60% of maximal function calls                     2.2311440009
 POWELL| Reached  62% of maximal function calls                     2.2311298180
 POWELL| Reached  64% of maximal function calls                     2.2311298180
 POWELL| Reached  66% of maximal function calls                     2.2311298180
 POWELL| Reached  68% of maximal function calls                     2.2311298180
 POWELL| Reached  70% of maximal function calls                     2.2311298180
 POWELL| Reached  72% of maximal function calls                     2.2311298180
 POWELL| Reached  74% of maximal function calls                     2.2311298180
 POWELL| Reached  76% of maximal function calls                     2.2311298180
 POWELL| Reached  78% of maximal function calls                     2.2311298180
 POWELL| Reached  80% of maximal function calls                     2.2311031365
 POWELL| Reached  82% of maximal function calls                     2.2310955685
 POWELL| Reached  84% of maximal function calls                     2.2310909398
 POWELL| Reached  86% of maximal function calls                     2.2310909398
 POWELL| Reached  88% of maximal function calls                     2.2310909398
 POWELL| Reached  90% of maximal function calls                     2.2310909398
 POWELL| Reached  92% of maximal function calls                     2.2310909398
 POWELL| Reached  94% of maximal function calls                     2.2310741465
 POWELL| Reached  96% of maximal function calls                     2.2310741465
 POWELL| Reached  98% of maximal function calls                     2.2310741465
 POWELL| Reached 100% of maximal function calls                     2.2310741465
 POWELL| Reached 100% of maximal function calls                     2.2310741465
 POWELL| Exceeding maximum number of steps
 POWELL| Reached 100% of maximal function calls                     2.2310741465
 POWELL| RMS average of variables                                   0.0000603092
 POWELL| Start optimization   2 of total 100               rhobeg =   0.00019600
 POWELL| Inital value of function                                   2.2310741465
 POWELL| Reached   6% of maximal function calls                     2.2310741465
 POWELL| Reached   8% of maximal function calls                     2.2310741465
 POWELL| Reached  10% of maximal function calls                     2.2310741465
 POWELL| Reached  12% of maximal function calls                     2.2310741465
 POWELL| Reached  14% of maximal function calls                     2.2310741465
 POWELL| Reached  16% of maximal function calls                     2.2310741465
 POWELL| Reached  18% of maximal function calls                     2.2310741465
 POWELL| Reached  20% of maximal function calls                     2.2310741465
 POWELL| Reached  22% of maximal function calls                     2.2310741465
 POWELL| Reached  24% of maximal function calls                     2.2310741465
 POWELL| Reached  26% of maximal function calls                     2.2310741465
 POWELL| Reached  28% of maximal function calls                     2.2122558474
 POWELL| Reached  30% of maximal function calls                     2.2122558474
 POWELL| Reached  32% of maximal function calls                     2.2122558474
 POWELL| Reached  34% of maximal function calls                     2.2122558474
 POWELL| Reached  36% of maximal function calls                     2.2122558474
 POWELL| Reached  38% of maximal function calls                     2.2122558474
 POWELL| Reached  40% of maximal function calls                     2.2122558474
 POWELL| Reached  42% of maximal function calls                     2.2122558474
 POWELL| Reached  44% of maximal function calls                     2.2122558474
 POWELL| Reached  46% of maximal function calls                     2.2122558474
 POWELL| Reached  48% of maximal function calls                     2.2122558474
 POWELL| Reached  50% of maximal function calls                     2.2108849686
 POWELL| Reached  52% of maximal function calls                     2.2108849686
 POWELL| Reached  54% of maximal function calls                     2.2108849686
 POWELL| Reached  56% of maximal function calls                     2.2108849686
 POWELL| Reached  57% of maximal function calls                     2.2108849686
 POWELL| Reached  60% of maximal function calls                     2.2108849686
 POWELL| Reached  62% of maximal function calls                     2.2108624669
 POWELL| Reached  64% of maximal function calls                     2.2108624669
 POWELL| Reached  66% of maximal function calls                     2.2108624669
 POWELL| Reached  68% of maximal function calls                     2.2107949543
 POWELL| Reached  70% of maximal function calls                     2.2107949543
 POWELL| Reached  72% of maximal function calls                     2.2107949543
 POWELL| Reached  74% of maximal function calls                     2.2087670579
 POWELL| Reached  76% of maximal function calls                     2.2087243855
 POWELL| Reached  78% of maximal function calls                     2.2087208892
 POWELL| Reached  80% of maximal function calls                     2.2087208892
 POWELL| Reached  82% of maximal function calls                     2.2087082808
 POWELL| Reached  84% of maximal function calls                     2.2087082808
 POWELL| Reached  86% of maximal function calls                     2.2087082808
 POWELL| Reached  88% of maximal function calls                     2.2087082808
 POWELL| Reached  90% of maximal function calls                     2.2087082808
 POWELL| Reached  92% of maximal function calls                     2.2087082808
 POWELL| Reached  94% of maximal function calls                     2.2087082808
 POWELL| Reached  96% of maximal function calls                     2.2087082808
 POWELL| Reached  98% of maximal function calls                     2.2087082808
 POWELL| Reached 100% of maximal function calls                     2.2087082808
 POWELL| Reached 100% of maximal function calls                     2.2087082808
 POWELL| Exceeding maximum number of steps
 POWELL| Reached 100% of maximal function calls                     2.2087082808
 POWELL| RMS average of variables                                   0.0000650654
 POWELL| Start optimization   3 of total 100               rhobeg =   0.00019208
 POWELL| Inital value of function                                   2.2087082808
 POWELL| Reached   6% of maximal function calls                     2.2087082808
 POWELL| Reached   8% of maximal function calls                     2.2087082808
 POWELL| Reached  10% of maximal function calls                     2.2087082808
 POWELL| Reached  12% of maximal function calls                     2.2087082808
 POWELL| Reached  14% of maximal function calls                     2.2087082808
 POWELL| Reached  16% of maximal function calls                     2.2087082808
 POWELL| Reached  18% of maximal function calls                     2.2087082808
 POWELL| Reached  20% of maximal function calls                     2.2087082808
 POWELL| Reached  22% of maximal function calls                     2.2087082808
 POWELL| Reached  24% of maximal function calls                     2.2087082808
 POWELL| Reached  26% of maximal function calls                     2.2087082808
 POWELL| Reached  28% of maximal function calls                     2.2084722508
 POWELL| Reached  30% of maximal function calls                     2.2014073360
 POWELL| Reached  32% of maximal function calls                     2.1852863671
 POWELL| Reached  34% of maximal function calls                     2.1852863671
 POWELL| Reached  36% of maximal function calls                     2.1852863671
 POWELL| Reached  38% of maximal function calls                     2.1852863671
 POWELL| Reached  40% of maximal function calls                     2.1852863671
 POWELL| Reached  42% of maximal function calls                     2.1840121666
 POWELL| Reached  44% of maximal function calls                     2.1840121666
 POWELL| Reached  46% of maximal function calls                     2.1840121666
 POWELL| Reached  48% of maximal function calls                     2.1840121666
 POWELL| Reached  50% of maximal function calls                     2.1830073556
 POWELL| Reached  52% of maximal function calls                     2.1830073556
 POWELL| Reached  54% of maximal function calls                     2.1830073556
 POWELL| Reached  56% of maximal function calls                     2.1830073556
 POWELL| Reached  57% of maximal function calls                     2.1827879842
 POWELL| Reached  60% of maximal function calls                     2.1827691038
 POWELL| Reached  62% of maximal function calls                     2.1827691038
 POWELL| Reached  64% of maximal function calls                     2.1827691038
 POWELL| Reached  66% of maximal function calls                     2.1827691038
 POWELL| Reached  68% of maximal function calls                     2.1827691038
 POWELL| Reached  70% of maximal function calls                     2.1827691038
 POWELL| Reached  72% of maximal function calls                     2.1827616307
 POWELL| Reached  74% of maximal function calls                     2.1827507037
 POWELL| Reached  76% of maximal function calls                     2.1827186173
 POWELL| Reached  78% of maximal function calls                     2.1827186173
 POWELL| Reached  80% of maximal function calls                     2.1827186173
 POWELL| Reached  82% of maximal function calls                     2.1827186173
 POWELL| Reached  84% of maximal function calls                     2.1827019328
 POWELL| Reached  86% of maximal function calls                     2.1827019328
 POWELL| Reached  88% of maximal function calls                     2.1826720056
 POWELL| Reached  90% of maximal function calls                     2.1826720056
 POWELL| Reached  92% of maximal function calls                     2.1826556895
 POWELL| Reached  94% of maximal function calls                     2.1826356319
 POWELL| Reached  96% of maximal function calls                     2.1826356319
 POWELL| Reached  98% of maximal function calls                     2.1826356319
 POWELL| Reached 100% of maximal function calls                     2.1826356319
 POWELL| Reached 100% of maximal function calls                     2.1826196851
 POWELL| Exceeding maximum number of steps
 POWELL| Reached 100% of maximal function calls                     2.1826196851
 POWELL| RMS average of variables                                   0.0000642789
 POWELL| Start optimization   4 of total 100               rhobeg =   0.00018824
 POWELL| Inital value of function                                   2.1826196851
 POWELL| Reached   6% of maximal function calls                     2.1826196851
 POWELL| Reached   8% of maximal function calls                     2.1826196851
 POWELL| Reached  10% of maximal function calls                     2.1826196851
 POWELL| Reached  12% of maximal function calls                     2.1826196851
 POWELL| Reached  14% of maximal function calls                     2.1826196851
 POWELL| Reached  16% of maximal function calls                     2.1826196851
 POWELL| Reached  18% of maximal function calls                     2.1826196851
 POWELL| Reached  20% of maximal function calls                     2.1826196851
 POWELL| Reached  22% of maximal function calls                     2.1826196851
 POWELL| Reached  24% of maximal function calls                     2.1826196851
 POWELL| Reached  26% of maximal function calls                     2.1826196851
 POWELL| Reached  28% of maximal function calls                     2.1620613912
 POWELL| Reached  30% of maximal function calls                     2.1620613912
 POWELL| Reached  32% of maximal function calls                     2.1620613912
 POWELL| Reached  34% of maximal function calls                     2.1620613912
 POWELL| Reached  36% of maximal function calls                     2.1620613912
 POWELL| Reached  38% of maximal function calls                     2.1620613912
 POWELL| Reached  40% of maximal function calls                     2.1620613912
 POWELL| Reached  42% of maximal function calls                     2.1620613912
 POWELL| Reached  44% of maximal function calls                     2.1620613912
 POWELL| Reached  46% of maximal function calls                     2.1620613912
 POWELL| Reached  48% of maximal function calls                     2.1620613912
 POWELL| Reached  50% of maximal function calls                     2.1612726844
 POWELL| Reached  52% of maximal function calls                     2.1612726844
 POWELL| Reached  54% of maximal function calls                     2.1612726844
 POWELL| Reached  56% of maximal function calls                     2.1612726844
 POWELL| Reached  57% of maximal function calls                     2.1612726844
 POWELL| Reached  60% of maximal function calls                     2.1612726844
 POWELL| Reached  62% of maximal function calls                     2.1612726844
 POWELL| Reached  64% of maximal function calls                     2.1612726844
 POWELL| Reached  66% of maximal function calls                     2.1612726844
 POWELL| Reached  68% of maximal function calls                     2.1612726844
 POWELL| Reached  70% of maximal function calls                     2.1612726844
 POWELL| Reached  72% of maximal function calls                     2.1612726844
 POWELL| Reached  74% of maximal function calls                     2.1612726844
 POWELL| Reached  76% of maximal function calls                     2.1612726844
 POWELL| Reached  78% of maximal function calls                     2.1612726844
 POWELL| Reached  80% of maximal function calls                     2.1612726844
 POWELL| Reached  82% of maximal function calls                     2.1610542782
 POWELL| Reached  84% of maximal function calls                     2.1610542782
 POWELL| Reached  86% of maximal function calls                     2.1610295994
 POWELL| Reached  88% of maximal function calls                     2.1610164524
 POWELL| Reached  90% of maximal function calls                     2.1610032967
 POWELL| Reached  92% of maximal function calls                     2.1610032967
 POWELL| Reached  94% of maximal function calls                     2.1610032967
 POWELL| Reached  96% of maximal function calls                     2.1610032967
 POWELL| Reached  98% of maximal function calls                     2.1610032967
 POWELL| Reached 100% of maximal function calls                     2.1608689256
 POWELL| Reached 100% of maximal function calls                     2.1607472361
 POWELL| Exceeding maximum number of steps
 POWELL| Reached 100% of maximal function calls                     2.1607472361
 POWELL| RMS average of variables                                   0.0000623863
 POWELL| Start optimization   5 of total 100               rhobeg =   0.00018447
 POWELL| Inital value of function                                   2.1607472361
 POWELL| Reached   6% of maximal function calls                     2.1607472361
 POWELL| Reached   8% of maximal function calls                     2.1607472361
 POWELL| Reached  10% of maximal function calls                     2.1607472361
 POWELL| Reached  12% of maximal function calls                     2.1607472361
 POWELL| Reached  14% of maximal function calls                     2.1607472361
 POWELL| Reached  16% of maximal function calls                     2.1607472361
 POWELL| Reached  18% of maximal function calls                     2.1607472361
 POWELL| Reached  20% of maximal function calls                     2.1607472361
 POWELL| Reached  22% of maximal function calls                     2.1607472361
 POWELL| Reached  24% of maximal function calls                     2.1607472361
 POWELL| Reached  26% of maximal function calls                     2.1607472361
 POWELL| Reached  28% of maximal function calls                     2.1607472361
 POWELL| Reached  30% of maximal function calls                     2.1511407614
 POWELL| Reached  32% of maximal function calls                     2.1335164862
 POWELL| Reached  34% of maximal function calls                     2.1335164862
 POWELL| Reached  36% of maximal function calls                     2.1335164862
 POWELL| Reached  38% of maximal function calls                     2.1335164862
 POWELL| Reached  40% of maximal function calls                     2.1335164862
 POWELL| Reached  42% of maximal function calls                     2.1335164862
 POWELL| Reached  44% of maximal function calls                     2.1335164862
 POWELL| Reached  46% of maximal function calls                     2.1335164862
 POWELL| Reached  48% of maximal function calls                     2.1335164862
 POWELL| Reached  50% of maximal function calls                     2.1310530214
 POWELL| Reached  52% of maximal function calls                     2.1310530214
 POWELL| Reached  54% of maximal function calls                     2.1310530214
 POWELL| Reached  56% of maximal function calls                     2.1310530214
 POWELL| Reached  57% of maximal function calls                     2.1310530214
 POWELL| Reached  60% of maximal function calls                     2.1310530214
 POWELL| Reached  62% of maximal function calls                     2.1310530214
 POWELL| Reached  64% of maximal function calls                     2.1310530214
 POWELL| Reached  66% of maximal function calls                     2.1310530214
 POWELL| Reached  68% of maximal function calls                     2.1310458229
 POWELL| Reached  70% of maximal function calls                     2.1310306794
 POWELL| Reached  72% of maximal function calls                     2.1310306794
 POWELL| Reached  74% of maximal function calls                     2.1310210536
 POWELL| Reached  76% of maximal function calls                     2.1310210536
 POWELL| Reached  78% of maximal function calls                     2.1309047727
 POWELL| Reached  80% of maximal function calls                     2.1309047727
 POWELL| Reached  82% of maximal function calls                     2.1308737753
 POWELL| Reached  84% of maximal function calls                     2.1308737753
 POWELL| Reached  86% of maximal function calls                     2.1307772999
 POWELL| Reached  88% of maximal function calls                     2.1307515954
 POWELL| Reached  90% of maximal function calls                     2.1307515954
 POWELL| Reached  92% of maximal function calls                     2.1306973181
 POWELL| Reached  94% of maximal function calls                     2.1306973181
 POWELL| Reached  96% of maximal function calls                     2.1306557290
 POWELL| Reached  98% of maximal function calls                     2.1306421087
 POWELL| Reached 100% of maximal function calls                     2.1306421087
 POWELL| Reached 100% of maximal function calls                     2.1305186299
 POWELL| Exceeding maximum number of steps
 POWELL| Reached 100% of maximal function calls                     2.1305186299
 POWELL| RMS average of variables                                   0.0000613112
 POWELL| Start optimization   6 of total 100               rhobeg =   0.00018078
 POWELL| Inital value of function                                   2.1305186299
 POWELL| Reached   6% of maximal function calls                     2.1305186299
 POWELL| Reached   8% of maximal function calls                     2.1305186299
 POWELL| Reached  10% of maximal function calls                     2.1305186299
 POWELL| Reached  12% of maximal function calls                     2.1305186299
 POWELL| Reached  14% of maximal function calls                     2.1305186299
 POWELL| Reached  16% of maximal function calls                     2.1305186299
 POWELL| Reached  18% of maximal function calls                     2.1305186299
 POWELL| Reached  20% of maximal function calls                     2.1305186299
 POWELL| Reached  22% of maximal function calls                     2.1305186299
 POWELL| Reached  24% of maximal function calls                     2.1305186299
 POWELL| Reached  26% of maximal function calls                     2.1305186299
 POWELL| Reached  28% of maximal function calls                     2.1229767708
 POWELL| Reached  30% of maximal function calls                     2.1219993573
 POWELL| Reached  32% of maximal function calls                     2.1088588996
 POWELL| Reached  34% of maximal function calls                     2.1088588996
 POWELL| Reached  36% of maximal function calls                     2.1088588996
 POWELL| Reached  38% of maximal function calls                     2.1088588996
 POWELL| Reached  40% of maximal function calls                     2.1088588996
 POWELL| Reached  42% of maximal function calls                     2.1088588996
 POWELL| Reached  44% of maximal function calls                     2.1088588996
 POWELL| Reached  46% of maximal function calls                     2.1088588996
 POWELL| Reached  48% of maximal function calls                     2.1088588996
 POWELL| Reached  50% of maximal function calls                     2.1069390919
 POWELL| Reached  52% of maximal function calls                     2.1069390919
 POWELL| Reached  54% of maximal function calls                     2.1069390919
 POWELL| Reached  56% of maximal function calls                     2.1069390919
 POWELL| Reached  57% of maximal function calls                     2.1069390919
 POWELL| Reached  60% of maximal function calls                     2.1069390919
 POWELL| Reached  62% of maximal function calls                     2.1069390919
 POWELL| Reached  64% of maximal function calls                     2.1069390919
 POWELL| Reached  66% of maximal function calls                     2.1069390919
 POWELL| Reached  68% of maximal function calls                     2.1069369928
 POWELL| Reached  70% of maximal function calls                     2.1069136714
 POWELL| Reached  72% of maximal function calls                     2.1069136714
 POWELL| Reached  74% of maximal function calls                     2.1069054235
 POWELL| Reached  76% of maximal function calls                     2.1069054235
 POWELL| Reached  78% of maximal function calls                     2.1067610559
 POWELL| Reached  80% of maximal function calls                     2.1067610559
 POWELL| Reached  82% of maximal function calls                     2.1067197157
 POWELL| Reached  84% of maximal function calls                     2.1067197157
 POWELL| Reached  86% of maximal function calls                     2.1067154859
 POWELL| Reached  88% of maximal function calls                     2.1067154859
 POWELL| Reached  90% of maximal function calls                     2.1067116059
 POWELL| Reached  92% of maximal function calls                     2.1067116059
 POWELL| Reached  94% of maximal function calls                     2.1066998921
 POWELL| Reached  96% of maximal function calls                     2.1066136719
 POWELL| Reached  98% of maximal function calls                     2.1066136719
 POWELL| Reached 100% of maximal function calls                     2.1065367433
 POWELL| Reached 100% of maximal function calls                     2.1063906828
 POWELL| Exceeding maximum number of steps
 POWELL| Reached 100% of maximal function calls                     2.1063906828
 POWELL| RMS average of variables                                   0.0000600324
 POWELL| Start optimization   7 of total 100               rhobeg =   0.00017717
 POWELL| Inital value of function                                   2.1063906828
 POWELL| Reached   6% of maximal function calls                     2.1063906828
 POWELL| Reached   8% of maximal function calls                     2.1063906828
 POWELL| Reached  10% of maximal function calls                     2.1063906828
 POWELL| Reached  12% of maximal function calls                     2.1063906828
 POWELL| Reached  14% of maximal function calls                     2.1063906828
 POWELL| Reached  16% of maximal function calls                     2.1063906828
 POWELL| Reached  18% of maximal function calls                     2.1063906828
 POWELL| Reached  20% of maximal function calls                     2.1063906828
 POWELL| Reached  22% of maximal function calls                     2.1063906828
 POWELL| Reached  24% of maximal function calls                     2.1063906828
 POWELL| Reached  26% of maximal function calls                     2.1063906828
 POWELL| Reached  28% of maximal function calls                     2.0894122273
 POWELL| Reached  30% of maximal function calls                     2.0894122273
 POWELL| Reached  32% of maximal function calls                     2.0894122273
 POWELL| Reached  34% of maximal function calls                     2.0894122273
 POWELL| Reached  36% of maximal function calls                     2.0894122273
 POWELL| Reached  38% of maximal function calls                     2.0894122273
 POWELL| Reached  40% of maximal function calls                     2.0894122273
 POWELL| Reached  42% of maximal function calls                     2.0894122273
 POWELL| Reached  44% of maximal function calls                     2.0894122273
 POWELL| Reached  46% of maximal function calls                     2.0894122273
 POWELL| Reached  48% of maximal function calls                     2.0894122273
 POWELL| Reached  50% of maximal function calls                     2.0886679185
 POWELL| Reached  52% of maximal function calls                     2.0886679185
 POWELL| Reached  54% of maximal function calls                     2.0886679185
 POWELL| Reached  56% of maximal function calls                     2.0886679185
 POWELL| Reached  57% of maximal function calls                     2.0886679185
 POWELL| Reached  60% of maximal function calls                     2.0886679185
 POWELL| Reached  62% of maximal function calls                     2.0886679185
 POWELL| Reached  64% of maximal function calls                     2.0886679185
 POWELL| Reached  66% of maximal function calls                     2.0886679185
 POWELL| Reached  68% of maximal function calls                     2.0886679185
 POWELL| Reached  70% of maximal function calls                     2.0886679185
 POWELL| Reached  72% of maximal function calls                     2.0886280458
 POWELL| Reached  74% of maximal function calls                     2.0886280458
 POWELL| Reached  76% of maximal function calls                     2.0886280458
 POWELL| Reached  78% of maximal function calls                     2.0884335293
 POWELL| Reached  80% of maximal function calls                     2.0884335293
 POWELL| Reached  82% of maximal function calls                     2.0883348960
 POWELL| Reached  84% of maximal function calls                     2.0883205003
 POWELL| Reached  86% of maximal function calls                     2.0882984378
 POWELL| Reached  88% of maximal function calls                     2.0882984378
 POWELL| Reached  90% of maximal function calls                     2.0882864092
 POWELL| Reached  92% of maximal function calls                     2.0882864092
 POWELL| Reached  94% of maximal function calls                     2.0882728364
 POWELL| Reached  96% of maximal function calls                     2.0882728364
 POWELL| Reached  98% of maximal function calls                     2.0882728364
 POWELL| Reached 100% of maximal function calls                     2.0882728364
 POWELL| Reached 100% of maximal function calls                     2.0882728364
 POWELL| Exceeding maximum number of steps
 POWELL| Reached 100% of maximal function calls                     2.0882728364
 POWELL| RMS average of variables                                   0.0000587174
 POWELL| Start optimization   8 of total 100               rhobeg =   0.00017363
 POWELL| Inital value of function                                   2.0882728364
 POWELL| Reached   6% of maximal function calls                     2.0882728364
 POWELL| Reached   8% of maximal function calls                     2.0882728364
 POWELL| Reached  10% of maximal function calls                     2.0882728364
 POWELL| Reached  12% of maximal function calls                     2.0882728364
 POWELL| Reached  14% of maximal function calls                     2.0882728364
 POWELL| Reached  16% of maximal function calls                     2.0882728364
 POWELL| Reached  18% of maximal function calls                     2.0882728364
 POWELL| Reached  20% of maximal function calls                     2.0882728364
 POWELL| Reached  22% of maximal function calls                     2.0882728364
 POWELL| Reached  24% of maximal function calls                     2.0882728364
 POWELL| Reached  26% of maximal function calls                     2.0882728364
 POWELL| Reached  28% of maximal function calls                     2.0854307476
 POWELL| Reached  30% of maximal function calls                     2.0794470620
 POWELL| Reached  32% of maximal function calls                     2.0632110161
 POWELL| Reached  34% of maximal function calls                     2.0632110161
 POWELL| Reached  36% of maximal function calls                     2.0632110161
 POWELL| Reached  38% of maximal function calls                     2.0632110161
 POWELL| Reached  40% of maximal function calls                     2.0632110161
 POWELL| Reached  42% of maximal function calls                     2.0632110161
 POWELL| Reached  44% of maximal function calls                     2.0632110161
 POWELL| Reached  46% of maximal function calls                     2.0632110161
 POWELL| Reached  48% of maximal function calls                     2.0632110161
 POWELL| Reached  50% of maximal function calls                     2.0609320814
 POWELL| Reached  52% of maximal function calls                     2.0609320814
 POWELL| Reached  54% of maximal function calls                     2.0609320814
 POWELL| Reached  56% of maximal function calls                     2.0609320814
 POWELL| Reached  57% of maximal function calls                     2.0609320814
 POWELL| Reached  60% of maximal function calls                     2.0609320814
 POWELL| Reached  62% of maximal function calls                     2.0609320814
 POWELL| Reached  64% of maximal function calls                     2.0609320814
 POWELL| Reached  66% of maximal function calls                     2.0609320814
 POWELL| Reached  68% of maximal function calls                     2.0609252199
 POWELL| Reached  70% of maximal function calls                     2.0609121420
 POWELL| Reached  72% of maximal function calls                     2.0609121420
 POWELL| Reached  74% of maximal function calls                     2.0609044889
 POWELL| Reached  76% of maximal function calls                     2.0609044889
 POWELL| Reached  78% of maximal function calls                     2.0607950723
 POWELL| Reached  80% of maximal function calls                     2.0607950723
 POWELL| Reached  82% of maximal function calls                     2.0607659729
 POWELL| Reached  84% of maximal function calls                     2.0607659729
 POWELL| Reached  86% of maximal function calls                     2.0606803633
 POWELL| Reached  88% of maximal function calls                     2.0606589075
 POWELL| Reached  90% of maximal function calls                     2.0606589075
 POWELL| Reached  92% of maximal function calls                     2.0606107247
 POWELL| Reached  94% of maximal function calls                     2.0606107247
 POWELL| Reached  96% of maximal function calls                     2.0605688936
 POWELL| Reached  98% of maximal function calls                     2.0605570707
 POWELL| Reached 100% of maximal function calls                     2.0605570707
 POWELL| Reached 100% of maximal function calls                     2.0604410041
 POWELL| Exceeding maximum number of steps
 POWELL| Reached 100% of maximal function calls                     2.0604410041
 POWELL| RMS average of variables                                   0.0000577059
 POWELL| Start optimization   9 of total 100               rhobeg =   0.00017015
 POWELL| Inital value of function                                   2.0604410041
 POWELL| Reached   6% of maximal function calls                     2.0604410041
 POWELL| Reached   8% of maximal function calls                     2.0604410041
 POWELL| Reached  10% of maximal function calls                     2.0604410041
 POWELL| Reached  12% of maximal function calls                     2.0604410041
 POWELL| Reached  14% of maximal function calls                     2.0604410041
 POWELL| Reached  16% of maximal function calls                     2.0604410041
 POWELL| Reached  18% of maximal function calls                     2.0604410041
 POWELL| Reached  20% of maximal function calls                     2.0604410041
 POWELL| Reached  22% of maximal function calls                     2.0604410041
 POWELL| Reached  24% of maximal function calls                     2.0604410041
 POWELL| Reached  26% of maximal function calls                     2.0604410041
 POWELL| Reached  28% of maximal function calls                     2.0500015125
 POWELL| Reached  30% of maximal function calls                     2.0500015125
 POWELL| Reached  32% of maximal function calls                     2.0402988193
 POWELL| Reached  34% of maximal function calls                     2.0402988193
 POWELL| Reached  36% of maximal function calls                     2.0402988193
 POWELL| Reached  38% of maximal function calls                     2.0402988193
 POWELL| Reached  40% of maximal function calls                     2.0402988193
 POWELL| Reached  42% of maximal function calls                     2.0402988193
 POWELL| Reached  44% of maximal function calls                     2.0402988193
 POWELL| Reached  46% of maximal function calls                     2.0402988193
 POWELL| Reached  48% of maximal function calls                     2.0402988193
 POWELL| Reached  50% of maximal function calls                     2.0355239832
 POWELL| Reached  52% of maximal function calls                     2.0355239832
 POWELL| Reached  54% of maximal function calls                     2.0355239832
 POWELL| Reached  56% of maximal function calls                     2.0355239832
 POWELL| Reached  57% of maximal function calls                     2.0355239832
 POWELL| Reached  60% of maximal function calls                     2.0355239832
 POWELL| Reached  62% of maximal function calls                     2.0355239832
 POWELL| Reached  64% of maximal function calls                     2.0355239832
 POWELL| Reached  66% of maximal function calls                     2.0355239832
 POWELL| Reached  68% of maximal function calls                     2.0355217813
 POWELL| Reached  70% of maximal function calls                     2.0354907586
 POWELL| Reached  72% of maximal function calls                     2.0354907586
 POWELL| Reached  74% of maximal function calls                     2.0354679765
 POWELL| Reached  76% of maximal function calls                     2.0354679765
 POWELL| Reached  78% of maximal function calls                     2.0354651165
 POWELL| Reached  80% of maximal function calls                     2.0354651165
 POWELL| Reached  82% of maximal function calls                     2.0354408791
 POWELL| Reached  84% of maximal function calls                     2.0354408791
 POWELL| Reached  86% of maximal function calls                     2.0354408791
 POWELL| Reached  88% of maximal function calls                     2.0353218614
 POWELL| Reached  90% of maximal function calls                     2.0353218614
 POWELL| Reached  92% of maximal function calls                     2.0353218614
 POWELL| Reached  94% of maximal function calls                     2.0353218614
 POWELL| Reached  96% of maximal function calls                     2.0353218614
 POWELL| Reached  98% of maximal function calls                     2.0353000047
 POWELL| Reached 100% of maximal function calls                     2.0352510641
 POWELL| Reached 100% of maximal function calls                     2.0350972792
 POWELL| Exceeding maximum number of steps
 POWELL| Reached 100% of maximal function calls                     2.0350972792
 POWELL| RMS average of variables                                   0.0000564862
 POWELL| Start optimization  10 of total 100               rhobeg =   0.00016675
 POWELL| Inital value of function                                   2.0350972792
 POWELL| Reached   6% of maximal function calls                     2.0350972792
 POWELL| Reached   8% of maximal function calls                     2.0350972792
 POWELL| Reached  10% of maximal function calls                     2.0350972792
 POWELL| Reached  12% of maximal function calls                     2.0350972792
 POWELL| Reached  14% of maximal function calls                     2.0350972792
 POWELL| Reached  16% of maximal function calls                     2.0350972792
 POWELL| Reached  18% of maximal function calls                     2.0350972792
 POWELL| Reached  20% of maximal function calls                     2.0350972792
 POWELL| Reached  22% of maximal function calls                     2.0350972792
 POWELL| Reached  24% of maximal function calls                     2.0350972792
 POWELL| Reached  26% of maximal function calls                     2.0350972792
 POWELL| Reached  28% of maximal function calls                     2.0191769435
 POWELL| Reached  30% of maximal function calls                     2.0191769435
 POWELL| Reached  32% of maximal function calls                     2.0191769435
 POWELL| Reached  34% of maximal function calls                     2.0191769435
 POWELL| Reached  36% of maximal function calls                     2.0191769435
 POWELL| Reached  38% of maximal function calls                     2.0191769435
 POWELL| Reached  40% of maximal function calls                     2.0191769435
 POWELL| Reached  42% of maximal function calls                     2.0191769435
 POWELL| Reached  44% of maximal function calls                     2.0191769435
 POWELL| Reached  46% of maximal function calls                     2.0191769435
 POWELL| Reached  48% of maximal function calls                     2.0191769435
 POWELL| Reached  50% of maximal function calls                     2.0184285101
 POWELL| Reached  52% of maximal function calls                     2.0184285101
 POWELL| Reached  54% of maximal function calls                     2.0184285101
 POWELL| Reached  56% of maximal function calls                     2.0184285101
 POWELL| Reached  57% of maximal function calls                     2.0184285101
 POWELL| Reached  60% of maximal function calls                     2.0184285101
 POWELL| Reached  62% of maximal function calls                     2.0184285101
 POWELL| Reached  64% of maximal function calls                     2.0184285101
 POWELL| Reached  66% of maximal function calls                     2.0184285101
 POWELL| Reached  68% of maximal function calls                     2.0184285101
 POWELL| Reached  70% of maximal function calls                     2.0184285101
 POWELL| Reached  72% of maximal function calls                     2.0184285101
 POWELL| Reached  74% of maximal function calls                     2.0184285101
 POWELL| Reached  76% of maximal function calls                     2.0183832857
 POWELL| Reached  78% of maximal function calls                     2.0182109955
 POWELL| Reached  80% of maximal function calls                     2.0182109955
 POWELL| Reached  82% of maximal function calls                     2.0181143504
 POWELL| Reached  84% of maximal function calls                     2.0181143504
 POWELL| Reached  86% of maximal function calls                     2.0180942063
 POWELL| Reached  88% of maximal function calls                     2.0180942063
 POWELL| Reached  90% of maximal function calls                     2.0180925328
 POWELL| Reached  92% of maximal function calls                     2.0180925328
 POWELL| Reached  94% of maximal function calls                     2.0180755141
 POWELL| Reached  96% of maximal function calls                     2.0179617691
 POWELL| Reached  98% of maximal function calls                     2.0179617691
 POWELL| Reached 100% of maximal function calls                     2.0179617691
 POWELL| Reached 100% of maximal function calls                     2.0178174505
 POWELL| Exceeding maximum number of steps
 POWELL| Reached 100% of maximal function calls                     2.0178174505
 POWELL| RMS average of variables                                   0.0000552834
 POWELL| Start optimization  11 of total 100               rhobeg =   0.00016341
 POWELL| Inital value of function                                   2.0178174505
 POWELL| Reached   6% of maximal function calls                     2.0178174505
 POWELL| Reached   8% of maximal function calls                     2.0178174505
 POWELL| Reached  10% of maximal function calls                     2.0178174505
 POWELL| Reached  12% of maximal function calls                     2.0178174505
 POWELL| Reached  14% of maximal function calls                     2.0178174505
 POWELL| Reached  16% of maximal function calls                     2.0178174505
 POWELL| Reached  18% of maximal function calls                     2.0178174505
 POWELL| Reached  20% of maximal function calls                     2.0178174505
 POWELL| Reached  22% of maximal function calls                     2.0178174505
 POWELL| Reached  24% of maximal function calls                     2.0178174505
 POWELL| Reached  26% of maximal function calls                     2.0178174505
 POWELL| Reached  28% of maximal function calls                     2.0178174505
 POWELL| Reached  30% of maximal function calls                     2.0096113714
 POWELL| Reached  32% of maximal function calls                     1.9946423938
 POWELL| Reached  34% of maximal function calls                     1.9946423938
 POWELL| Reached  36% of maximal function calls                     1.9946423938
 POWELL| Reached  38% of maximal function calls                     1.9946423938
 POWELL| Reached  40% of maximal function calls                     1.9946423938
 POWELL| Reached  42% of maximal function calls                     1.9946423938
 POWELL| Reached  44% of maximal function calls                     1.9946423938
 POWELL| Reached  46% of maximal function calls                     1.9946423938
 POWELL| Reached  48% of maximal function calls                     1.9946423938
 POWELL| Reached  50% of maximal function calls                     1.9925262785
 POWELL| Reached  52% of maximal function calls                     1.9925262785
 POWELL| Reached  54% of maximal function calls                     1.9925262785
 POWELL| Reached  56% of maximal function calls                     1.9925262785
 POWELL| Reached  57% of maximal function calls                     1.9925262785
 POWELL| Reached  60% of maximal function calls                     1.9925262785
 POWELL| Reached  62% of maximal function calls                     1.9925262785
 POWELL| Reached  64% of maximal function calls                     1.9925262785
 POWELL| Reached  66% of maximal function calls                     1.9925262785
 POWELL| Reached  68% of maximal function calls                     1.9925198603
 POWELL| Reached  70% of maximal function calls                     1.9887670123
 POWELL| Reached  72% of maximal function calls                     1.9887670123
 POWELL| Reached  74% of maximal function calls                     1.9887670123
 POWELL| Reached  76% of maximal function calls                     1.9887670123
 POWELL| Reached  78% of maximal function calls                     1.9886573019
 POWELL| Reached  80% of maximal function calls                     1.9886573019
 POWELL| Reached  82% of maximal function calls                     1.9886338597
 POWELL| Reached  84% of maximal function calls                     1.9886338597
 POWELL| Reached  86% of maximal function calls                     1.9885598051
 POWELL| Reached  88% of maximal function calls                     1.9885193054
 POWELL| Reached  90% of maximal function calls                     1.9885193054
 POWELL| Reached  92% of maximal function calls                     1.9885193054
 POWELL| Reached  94% of maximal function calls                     1.9884847156
 POWELL| Reached  96% of maximal function calls                     1.9884847156
 POWELL| Reached  98% of maximal function calls                     1.9884847156
 POWELL| Reached 100% of maximal function calls                     1.9884847156
 POWELL| Reached 100% of maximal function calls                     1.9884186414
 POWELL| Exceeding maximum number of steps
 POWELL| Reached 100% of maximal function calls                     1.9884186414
 POWELL| RMS average of variables                                   0.0000542179
 POWELL| Start optimization  12 of total 100               rhobeg =   0.00016015
 POWELL| Inital value of function                                   1.9884186414
 POWELL| Reached   6% of maximal function calls                     1.9884186414
 POWELL| Reached   8% of maximal function calls                     1.9884186414
 POWELL| Reached  10% of maximal function calls                     1.9884186414
 POWELL| Reached  12% of maximal function calls                     1.9884186414
 POWELL| Reached  14% of maximal function calls                     1.9884186414
 POWELL| Reached  16% of maximal function calls                     1.9884186414
 POWELL| Reached  18% of maximal function calls                     1.9884186414
 POWELL| Reached  20% of maximal function calls                     1.9884186414
 POWELL| Reached  22% of maximal function calls                     1.9884186414
 POWELL| Reached  24% of maximal function calls                     1.9884186414
 POWELL| Reached  26% of maximal function calls                     1.9884186414
 POWELL| Reached  28% of maximal function calls                     1.9802348974
 POWELL| Reached  30% of maximal function calls                     1.9802348974
 POWELL| Reached  32% of maximal function calls                     1.9696835974
 POWELL| Reached  34% of maximal function calls                     1.9696835974
 POWELL| Reached  36% of maximal function calls                     1.9696835974
 POWELL| Reached  38% of maximal function calls                     1.9696835974
 POWELL| Reached  40% of maximal function calls                     1.9696835974
 POWELL| Reached  42% of maximal function calls                     1.9696835974
 POWELL| Reached  44% of maximal function calls                     1.9696835974
 POWELL| Reached  46% of maximal function calls                     1.9696835974
 POWELL| Reached  48% of maximal function calls                     1.9696835974
 POWELL| Reached  50% of maximal function calls                     1.9680041453
 POWELL| Reached  52% of maximal function calls                     1.9680041453
 POWELL| Reached  54% of maximal function calls                     1.9680041453
 POWELL| Reached  56% of maximal function calls                     1.9680041453
 POWELL| Reached  57% of maximal function calls                     1.9680041453
 POWELL| Reached  60% of maximal function calls                     1.9680041453
 POWELL| Reached  62% of maximal function calls                     1.9680041453
 POWELL| Reached  64% of maximal function calls                     1.9680041453
 POWELL| Reached  66% of maximal function calls                     1.9680041453
 POWELL| Reached  68% of maximal function calls                     1.9680022087
 POWELL| Reached  70% of maximal function calls                     1.9680022087
 POWELL| Reached  72% of maximal function calls                     1.9680022087
 POWELL| Reached  74% of maximal function calls                     1.9680022087
 POWELL| Reached  76% of maximal function calls                     1.9680022087
 POWELL| Reached  78% of maximal function calls                     1.9678688270
 POWELL| Reached  80% of maximal function calls                     1.9678688270
 POWELL| Reached  82% of maximal function calls                     1.9678688270
 POWELL| Reached  84% of maximal function calls                     1.9678688270
 POWELL| Reached  86% of maximal function calls                     1.9678656566
 POWELL| Reached  88% of maximal function calls                     1.9678656566
 POWELL| Reached  90% of maximal function calls                     1.9678324544
 POWELL| Reached  92% of maximal function calls                     1.9678324544
 POWELL| Reached  94% of maximal function calls                     1.9678209458
 POWELL| Reached  96% of maximal function calls                     1.9678209458
 POWELL| Reached  98% of maximal function calls                     1.9678209458
 POWELL| Reached 100% of maximal function calls                     1.9678209458
 POWELL| Reached 100% of maximal function calls                     1.9676817934
 POWELL| Exceeding maximum number of steps
 POWELL| Reached 100% of maximal function calls                     1.9676817934
 POWELL| RMS average of variables                                   0.0000532235
 POWELL| Start optimization  13 of total 100               rhobeg =   0.00015694
 POWELL| Inital value of function                                   1.9676817934
 POWELL| Reached   6% of maximal function calls                     1.9676817934
 POWELL| Reached   8% of maximal function calls                     1.9676817934
 POWELL| Reached  10% of maximal function calls                     1.9676817934
 POWELL| Reached  12% of maximal function calls                     1.9676817934
 POWELL| Reached  14% of maximal function calls                     1.9676817934
 POWELL| Reached  16% of maximal function calls                     1.9676817934
 POWELL| Reached  18% of maximal function calls                     1.9676817934
 POWELL| Reached  20% of maximal function calls                     1.9676817934
 POWELL| Reached  22% of maximal function calls                     1.9676817934
 POWELL| Reached  24% of maximal function calls                     1.9676817934
 POWELL| Reached  26% of maximal function calls                     1.9676817934
 POWELL| Reached  28% of maximal function calls                     1.9522384528
 POWELL| Reached  30% of maximal function calls                     1.9522384528
 POWELL| Reached  32% of maximal function calls                     1.9522384528
 POWELL| Reached  34% of maximal function calls                     1.9522384528
 POWELL| Reached  36% of maximal function calls                     1.9522384528
 POWELL| Reached  38% of maximal function calls                     1.9522384528
 POWELL| Reached  40% of maximal function calls                     1.9522384528
 POWELL| Reached  42% of maximal function calls                     1.9522384528
 POWELL| Reached  44% of maximal function calls                     1.9522384528
 POWELL| Reached  46% of maximal function calls                     1.9522384528
 POWELL| Reached  48% of maximal function calls                     1.9522384528
 POWELL| Reached  50% of maximal function calls                     1.9514409098
 POWELL| Reached  52% of maximal function calls                     1.9514409098
 POWELL| Reached  54% of maximal function calls                     1.9514409098
 POWELL| Reached  56% of maximal function calls                     1.9514409098
 POWELL| Reached  57% of maximal function calls                     1.9514409098
 POWELL| Reached  60% of maximal function calls                     1.9514409098
 POWELL| Reached  62% of maximal function calls                     1.9514409098
 POWELL| Reached  64% of maximal function calls                     1.9514409098
 POWELL| Reached  66% of maximal function calls                     1.9514409098
 POWELL| Reached  68% of maximal function calls                     1.9514409098
 POWELL| Reached  70% of maximal function calls                     1.9514409098
 POWELL| Reached  72% of maximal function calls                     1.9514409098
 POWELL| Reached  74% of maximal function calls                     1.9514409098
 POWELL| Reached  76% of maximal function calls                     1.9514409098
 POWELL| Reached  78% of maximal function calls                     1.9514409098
 POWELL| Reached  80% of maximal function calls                     1.9514409098
 POWELL| Reached  82% of maximal function calls                     1.9512980704
 POWELL| Reached  84% of maximal function calls                     1.9512980704
 POWELL| Reached  86% of maximal function calls                     1.9512822800
 POWELL| Reached  88% of maximal function calls                     1.9512822800
 POWELL| Reached  90% of maximal function calls                     1.9512688365
 POWELL| Reached  92% of maximal function calls                     1.9512688365
 POWELL| Reached  94% of maximal function calls                     1.9512688365
 POWELL| Reached  96% of maximal function calls                     1.9512688365
 POWELL| Reached  98% of maximal function calls                     1.9512688365
 POWELL| Reached 100% of maximal function calls                     1.9512688365
 POWELL| Reached 100% of maximal function calls                     1.9512688365
 POWELL| Exceeding maximum number of steps
 POWELL| Reached 100% of maximal function calls                     1.9512688365
 POWELL| RMS average of variables                                   0.0000520064
 POWELL| Start optimization  14 of total 100               rhobeg =   0.00015380
 POWELL| Inital value of function                                   1.9512688365
 POWELL| Reached   6% of maximal function calls                     1.9512688365
 POWELL| Reached   8% of maximal function calls                     1.9512688365
 POWELL| Reached  10% of maximal function calls                     1.9512688365
 POWELL| Reached  12% of maximal function calls                     1.9512688365
 POWELL| Reached  14% of maximal function calls                     1.9512688365
 POWELL| Reached  16% of maximal function calls                     1.9512688365
 POWELL| Reached  18% of maximal function calls                     1.9512688365
 POWELL| Reached  20% of maximal function calls                     1.9512688365
 POWELL| Reached  22% of maximal function calls                     1.9512688365
 POWELL| Reached  24% of maximal function calls                     1.9512688365
 POWELL| Reached  26% of maximal function calls                     1.9512688365
 POWELL| Reached  28% of maximal function calls                     1.9504963305
 POWELL| Reached  30% of maximal function calls                     1.9436446359
 POWELL| Reached  32% of maximal function calls                     1.9299220924
 POWELL| Reached  34% of maximal function calls                     1.9299220924
 POWELL| Reached  36% of maximal function calls                     1.9299220924
 POWELL| Reached  38% of maximal function calls                     1.9299220924
 POWELL| Reached  40% of maximal function calls                     1.9299220924
 POWELL| Reached  42% of maximal function calls                     1.9299220924
 POWELL| Reached  44% of maximal function calls                     1.9299220924
 POWELL| Reached  46% of maximal function calls                     1.9299220924
 POWELL| Reached  48% of maximal function calls                     1.9299220924
 POWELL| Reached  50% of maximal function calls                     1.9279665000
 POWELL| Reached  52% of maximal function calls                     1.9279665000
 POWELL| Reached  54% of maximal function calls                     1.9279665000
 POWELL| Reached  56% of maximal function calls                     1.9279665000
 POWELL| Reached  57% of maximal function calls                     1.9279665000
 POWELL| Reached  60% of maximal function calls                     1.9279665000
 POWELL| Reached  62% of maximal function calls                     1.9279665000
 POWELL| Reached  64% of maximal function calls                     1.9279665000
 POWELL| Reached  66% of maximal function calls                     1.9279665000
 POWELL| Reached  68% of maximal function calls                     1.9279602353
 POWELL| Reached  70% of maximal function calls                     1.9279602353
 POWELL| Reached  72% of maximal function calls                     1.9279602353
 POWELL| Reached  74% of maximal function calls                     1.9279602353
 POWELL| Reached  76% of maximal function calls                     1.9279602353
 POWELL| Reached  78% of maximal function calls                     1.9278541910
 POWELL| Reached  80% of maximal function calls                     1.9278541910
 POWELL| Reached  82% of maximal function calls                     1.9277929183
 POWELL| Reached  84% of maximal function calls                     1.9277929183
 POWELL| Reached  86% of maximal function calls                     1.9277889276
 POWELL| Reached  88% of maximal function calls                     1.9277889276
 POWELL| Reached  90% of maximal function calls                     1.9277870289
 POWELL| Reached  92% of maximal function calls                     1.9277870289
 POWELL| Reached  94% of maximal function calls                     1.9277870289
 POWELL| Reached  96% of maximal function calls                     1.9277870289
 POWELL| Reached  98% of maximal function calls                     1.9277870289
 POWELL| Reached 100% of maximal function calls                     1.9277870289
 POWELL| Reached 100% of maximal function calls                     1.9277870289
 POWELL| Exceeding maximum number of steps
 POWELL| Reached 100% of maximal function calls                     1.9277870289
 POWELL| RMS average of variables                                   0.0000510060
 POWELL| Start optimization  15 of total 100               rhobeg =   0.00015073
 POWELL| Inital value of function                                   1.9277870289
 POWELL| Reached   6% of maximal function calls                     1.9277870289
 POWELL| Reached   8% of maximal function calls                     1.9277870289
 POWELL| Reached  10% of maximal function calls                     1.9277870289
 POWELL| Reached  12% of maximal function calls                     1.9277870289
 POWELL| Reached  14% of maximal function calls                     1.9277870289
 POWELL| Reached  16% of maximal function calls                     1.9277870289
 POWELL| Reached  18% of maximal function calls                     1.9277870289
 POWELL| Reached  20% of maximal function calls                     1.9277870289
 POWELL| Reached  22% of maximal function calls                     1.9277870289
 POWELL| Reached  24% of maximal function calls                     1.9277870289
 POWELL| Reached  26% of maximal function calls                     1.9277870289
 POWELL| Reached  28% of maximal function calls                     1.9200332561
 POWELL| Reached  30% of maximal function calls                     1.9200332561
 POWELL| Reached  32% of maximal function calls                     1.9103981405
 POWELL| Reached  34% of maximal function calls                     1.9103981405
 POWELL| Reached  36% of maximal function calls                     1.9103981405
 POWELL| Reached  38% of maximal function calls                     1.9103981405
 POWELL| Reached  40% of maximal function calls                     1.9103981405
 POWELL| Reached  42% of maximal function calls                     1.9103981405
 POWELL| Reached  44% of maximal function calls                     1.9103981405
 POWELL| Reached  46% of maximal function calls                     1.9103981405
 POWELL| Reached  48% of maximal function calls                     1.9103981405
 POWELL| Reached  50% of maximal function calls                     1.9088311883
 POWELL| Reached  52% of maximal function calls                     1.9088311883
 POWELL| Reached  54% of maximal function calls                     1.9088311883
 POWELL| Reached  56% of maximal function calls                     1.9088311883
 POWELL| Reached  57% of maximal function calls                     1.9088311883
 POWELL| Reached  60% of maximal function calls                     1.9088311883
 POWELL| Reached  62% of maximal function calls                     1.9088311883
 POWELL| Reached  64% of maximal function calls                     1.9088311883
 POWELL| Reached  66% of maximal function calls                     1.9088311883
 POWELL| Reached  68% of maximal function calls                     1.9088288070
 POWELL| Reached  70% of maximal function calls                     1.9088288070
 POWELL| Reached  72% of maximal function calls                     1.9088288070
 POWELL| Reached  74% of maximal function calls                     1.9088288070
 POWELL| Reached  76% of maximal function calls                     1.9088288070
 POWELL| Reached  78% of maximal function calls                     1.9087025630
 POWELL| Reached  80% of maximal function calls                     1.9087025630
 POWELL| Reached  82% of maximal function calls                     1.9087025630
 POWELL| Reached  84% of maximal function calls                     1.9087025630
 POWELL| Reached  86% of maximal function calls                     1.9087025630
 POWELL| Reached  88% of maximal function calls                     1.9087025630
 POWELL| Reached  90% of maximal function calls                     1.9087016705
 POWELL| Reached  92% of maximal function calls                     1.9087016705
 POWELL| Reached  94% of maximal function calls                     1.9087016705
 POWELL| Reached  96% of maximal function calls                     1.9087016705
 POWELL| Reached  98% of maximal function calls                     1.9087016705
 POWELL| Reached 100% of maximal function calls                     1.9087016705
 POWELL| Reached 100% of maximal function calls                     1.9087016705
 POWELL| Exceeding maximum number of steps
 POWELL| Reached 100% of maximal function calls                     1.9087016705
 POWELL| RMS average of variables                                   0.0000500470
 POWELL| Start optimization  16 of total 100               rhobeg =   0.00014771
 POWELL| Inital value of function                                   1.9087016705
 POWELL| Reached   6% of maximal function calls                     1.9087016705
 POWELL| Reached   8% of maximal function calls                     1.9087016705
 POWELL| Reached  10% of maximal function calls                     1.9087016705
 POWELL| Reached  12% of maximal function calls                     1.9087016705
 POWELL| Reached  14% of maximal function calls                     1.9087016705
 POWELL| Reached  16% of maximal function calls                     1.9087016705
 POWELL| Reached  18% of maximal function calls                     1.9087016705
 POWELL| Reached  20% of maximal function calls                     1.9087016705
 POWELL| Reached  22% of maximal function calls                     1.9087016705
 POWELL| Reached  24% of maximal function calls                     1.9087016705
 POWELL| Reached  26% of maximal function calls                     1.9087016705
 POWELL| Reached  28% of maximal function calls                     1.8945109856
 POWELL| Reached  30% of maximal function calls                     1.8945109856
 POWELL| Reached  32% of maximal function calls                     1.8945109856
 POWELL| Reached  34% of maximal function calls                     1.8945109856
 POWELL| Reached  36% of maximal function calls                     1.8945109856
 POWELL| Reached  38% of maximal function calls                     1.8945109856
 POWELL| Reached  40% of maximal function calls                     1.8945109856
 POWELL| Reached  42% of maximal function calls                     1.8945109856
 POWELL| Reached  44% of maximal function calls                     1.8945109856
 POWELL| Reached  46% of maximal function calls                     1.8945109856
 POWELL| Reached  48% of maximal function calls                     1.8945109856
 POWELL| Reached  50% of maximal function calls                     1.8937538042
 POWELL| Reached  52% of maximal function calls                     1.8937538042
 POWELL| Reached  54% of maximal function calls                     1.8937538042
 POWELL| Reached  56% of maximal function calls                     1.8937538042
 POWELL| Reached  57% of maximal function calls                     1.8937538042
 POWELL| Reached  60% of maximal function calls                     1.8937538042
 POWELL| Reached  62% of maximal function calls                     1.8937538042
 POWELL| Reached  64% of maximal function calls                     1.8937538042
 POWELL| Reached  66% of maximal function calls                     1.8937538042
[...]
 POWELL| Reached 100% of maximal function calls                     1.1859678585
 POWELL| Exceeding maximum number of steps
 POWELL| Reached 100% of maximal function calls                     1.1859678585
 POWELL| RMS average of variables                                   0.0000095300
 POWELL| Start optimization  98 of total 100               rhobeg =   0.00002818
 POWELL| Inital value of function                                   1.1859678585
 POWELL| Reached   6% of maximal function calls                     1.1859678585
 POWELL| Reached   8% of maximal function calls                     1.1859678585
 POWELL| Reached  10% of maximal function calls                     1.1859678585
 POWELL| Reached  12% of maximal function calls                     1.1859678585
 POWELL| Reached  14% of maximal function calls                     1.1859678585
 POWELL| Reached  16% of maximal function calls                     1.1859678585
 POWELL| Reached  18% of maximal function calls                     1.1859678585
 POWELL| Reached  20% of maximal function calls                     1.1859678585
 POWELL| Reached  22% of maximal function calls                     1.1859678585
 POWELL| Reached  24% of maximal function calls                     1.1859678585
 POWELL| Reached  26% of maximal function calls                     1.1859678585
 POWELL| Reached  28% of maximal function calls                     1.1841772708
 POWELL| Reached  30% of maximal function calls                     1.1841772708
 POWELL| Reached  32% of maximal function calls                     1.1835455562
 POWELL| Reached  34% of maximal function calls                     1.1835455562
 POWELL| Reached  36% of maximal function calls                     1.1835455562
 POWELL| Reached  38% of maximal function calls                     1.1835455562
 POWELL| Reached  40% of maximal function calls                     1.1835455562
 POWELL| Reached  42% of maximal function calls                     1.1835237754
 POWELL| Reached  44% of maximal function calls                     1.1835237754
 POWELL| Reached  46% of maximal function calls                     1.1835237754
 POWELL| Reached  48% of maximal function calls                     1.1835237754
 POWELL| Reached  50% of maximal function calls                     1.1833154314
 POWELL| Reached  52% of maximal function calls                     1.1833154314
 POWELL| Reached  54% of maximal function calls                     1.1833154314
 POWELL| Reached  56% of maximal function calls                     1.1833154314
 POWELL| Reached  57% of maximal function calls                     1.1833154314
 POWELL| Reached  60% of maximal function calls                     1.1833154314
 POWELL| Reached  62% of maximal function calls                     1.1833154314
 POWELL| Reached  64% of maximal function calls                     1.1833154314
 POWELL| Reached  66% of maximal function calls                     1.1833154314
 POWELL| Reached  68% of maximal function calls                     1.1833154314
 POWELL| Reached  70% of maximal function calls                     1.1833154314
 POWELL| Reached  72% of maximal function calls                     1.1833154314
 POWELL| Reached  74% of maximal function calls                     1.1833154314
 POWELL| Reached  76% of maximal function calls                     1.1833128197
 POWELL| Reached  78% of maximal function calls                     1.1833128197
 POWELL| Reached  80% of maximal function calls                     1.1833006814
 POWELL| Reached  82% of maximal function calls                     1.1833006814
 POWELL| Reached  84% of maximal function calls                     1.1832914852
 POWELL| Reached  86% of maximal function calls                     1.1832914852
 POWELL| Reached  88% of maximal function calls                     1.1832914847
 POWELL| Reached  90% of maximal function calls                     1.1832914847
 POWELL| Reached  92% of maximal function calls                     1.1832914609
 POWELL| Reached  94% of maximal function calls                     1.1832914609
 POWELL| Reached  96% of maximal function calls                     1.1832898951
 POWELL| Reached  98% of maximal function calls                     1.1832825234
 POWELL| Reached 100% of maximal function calls                     1.1832825234
 POWELL| Reached 100% of maximal function calls                     1.1832825234
 POWELL| Exceeding maximum number of steps
 POWELL| Reached 100% of maximal function calls                     1.1832825234
 POWELL| RMS average of variables                                   0.0000093365
 POWELL| Start optimization  99 of total 100               rhobeg =   0.00002762
 POWELL| Inital value of function                                   1.1832825234
 POWELL| Reached   6% of maximal function calls                     1.1832825234
 POWELL| Reached   8% of maximal function calls                     1.1832825234
 POWELL| Reached  10% of maximal function calls                     1.1832825234
 POWELL| Reached  12% of maximal function calls                     1.1832825234
 POWELL| Reached  14% of maximal function calls                     1.1832825234
 POWELL| Reached  16% of maximal function calls                     1.1832825234
 POWELL| Reached  18% of maximal function calls                     1.1832825234
 POWELL| Reached  20% of maximal function calls                     1.1832825234
 POWELL| Reached  22% of maximal function calls                     1.1832825234
 POWELL| Reached  24% of maximal function calls                     1.1832825234
 POWELL| Reached  26% of maximal function calls                     1.1832825234
 POWELL| Reached  28% of maximal function calls                     1.1811290152
 POWELL| Reached  30% of maximal function calls                     1.1811290152
 POWELL| Reached  32% of maximal function calls                     1.1811144289
 POWELL| Reached  34% of maximal function calls                     1.1811144289
 POWELL| Reached  36% of maximal function calls                     1.1810108882
 POWELL| Reached  38% of maximal function calls                     1.1810108882
 POWELL| Reached  40% of maximal function calls                     1.1810108882
 POWELL| Reached  42% of maximal function calls                     1.1810108882
 POWELL| Reached  44% of maximal function calls                     1.1810108882
 POWELL| Reached  46% of maximal function calls                     1.1810108882
 POWELL| Reached  48% of maximal function calls                     1.1810108882
 POWELL| Reached  50% of maximal function calls                     1.1810108882
 POWELL| Reached  52% of maximal function calls                     1.1810108882
 POWELL| Reached  54% of maximal function calls                     1.1810108882
 POWELL| Reached  56% of maximal function calls                     1.1810108882
 POWELL| Reached  57% of maximal function calls                     1.1810108882
 POWELL| Reached  60% of maximal function calls                     1.1810108882
 POWELL| Reached  62% of maximal function calls                     1.1810108882
 POWELL| Reached  64% of maximal function calls                     1.1810108882
 POWELL| Reached  66% of maximal function calls                     1.1810095454
 POWELL| Reached  68% of maximal function calls                     1.1810095454
 POWELL| Reached  70% of maximal function calls                     1.1810095454
 POWELL| Reached  72% of maximal function calls                     1.1810051724
 POWELL| Reached  74% of maximal function calls                     1.1810051724
 POWELL| Reached  76% of maximal function calls                     1.1810048222
 POWELL| Reached  78% of maximal function calls                     1.1810046840
 POWELL| Reached  80% of maximal function calls                     1.1810046840
 POWELL| Reached  82% of maximal function calls                     1.1810046840
 POWELL| Reached  84% of maximal function calls                     1.1810046840
 POWELL| Reached  86% of maximal function calls                     1.1810046840
 POWELL| Reached  88% of maximal function calls                     1.1810046840
 POWELL| Reached  90% of maximal function calls                     1.1810046840
 POWELL| Reached  92% of maximal function calls                     1.1810040294
 POWELL| Reached  94% of maximal function calls                     1.1810038923
 POWELL| Reached  96% of maximal function calls                     1.1810036175
 POWELL| Reached  98% of maximal function calls                     1.1810023802
 POWELL| Reached 100% of maximal function calls                     1.1809981672
 POWELL| Reached 100% of maximal function calls                     1.1809981672
 POWELL| Exceeding maximum number of steps
 POWELL| Reached 100% of maximal function calls                     1.1809981672
 POWELL| RMS average of variables                                   0.0000083272
 POWELL| Start optimization 100 of total 100               rhobeg =   0.00002707
 POWELL| Inital value of function                                   1.1809981672
 POWELL| Reached   6% of maximal function calls                     1.1809981672
 POWELL| Reached   8% of maximal function calls                     1.1809981672
 POWELL| Reached  10% of maximal function calls                     1.1809981672
 POWELL| Reached  12% of maximal function calls                     1.1809981672
 POWELL| Reached  14% of maximal function calls                     1.1809981672
 POWELL| Reached  16% of maximal function calls                     1.1809981672
 POWELL| Reached  18% of maximal function calls                     1.1809981672
 POWELL| Reached  20% of maximal function calls                     1.1809981672
 POWELL| Reached  22% of maximal function calls                     1.1797511527
 POWELL| Reached  24% of maximal function calls                     1.1797511527
 POWELL| Reached  26% of maximal function calls                     1.1792072989
 POWELL| Reached  28% of maximal function calls                     1.1792072989
 POWELL| Reached  30% of maximal function calls                     1.1792072989
 POWELL| Reached  32% of maximal function calls                     1.1782647595
 POWELL| Reached  34% of maximal function calls                     1.1736652080
 POWELL| Reached  36% of maximal function calls                     1.1736652080
 POWELL| Reached  38% of maximal function calls                     1.1736652080
 POWELL| Reached  40% of maximal function calls                     1.1736652080
 POWELL| Reached  42% of maximal function calls                     1.1736652080
 POWELL| Reached  44% of maximal function calls                     1.1736652080
 POWELL| Reached  46% of maximal function calls                     1.1736652080
 POWELL| Reached  48% of maximal function calls                     1.1736652080
 POWELL| Reached  50% of maximal function calls                     1.1736652080
 POWELL| Reached  52% of maximal function calls                     1.1736652080
 POWELL| Reached  54% of maximal function calls                     1.1736652080
 POWELL| Reached  56% of maximal function calls                     1.1736652080
 POWELL| Reached  57% of maximal function calls                     1.1736652080
 POWELL| Reached  60% of maximal function calls                     1.1736652080
 POWELL| Reached  62% of maximal function calls                     1.1736652080
 POWELL| Reached  64% of maximal function calls                     1.1736636876
 POWELL| Reached  66% of maximal function calls                     1.1736636876
 POWELL| Reached  68% of maximal function calls                     1.1736625938
 POWELL| Reached  70% of maximal function calls                     1.1736625938
 POWELL| Reached  72% of maximal function calls                     1.1736625938
 POWELL| Reached  74% of maximal function calls                     1.1736625938
 POWELL| Reached  76% of maximal function calls                     1.1736590260
 POWELL| Reached  78% of maximal function calls                     1.1736585899
 POWELL| Reached  80% of maximal function calls                     1.1736583481
 POWELL| Reached  82% of maximal function calls                     1.1736583481
 POWELL| Reached  84% of maximal function calls                     1.1736583481
 POWELL| Reached  86% of maximal function calls                     1.1736583481
 POWELL| Reached  88% of maximal function calls                     1.1736583450
 POWELL| Reached  90% of maximal function calls                     1.1736583450
 POWELL| Reached  92% of maximal function calls                     1.1736569860
 POWELL| Reached  94% of maximal function calls                     1.1736569860
 POWELL| Reached  96% of maximal function calls                     1.1736568365
 POWELL| Reached  98% of maximal function calls                     1.1736563375
 POWELL| Reached 100% of maximal function calls                     1.1736562216
 POWELL| Reached 100% of maximal function calls                     1.1736551990
 POWELL| Exceeding maximum number of steps
 POWELL| Reached 100% of maximal function calls                     1.1736551990
 POWELL| RMS average of variables                                   0.0000081595
 POWELL| Number of function evaluations                                       50
 POWELL| Final value of function                                    1.1736551990

 POWELL| Final errors of target values

 Reference configuration          1               Method number                1
    L    N    Occupation      Eigenvalue [eV]           dE [eV]          dCharge 
    0    1          2.00       -35.1474477675 SC  -0.005437[12]    -0.000003[ X]
    0    2          1.00        -2.1709250848 VA   0.000664[54]     0.000372[ 0]
    0    3          0.00         2.4313345688 U1  -0.002881[ X]     0.000461[ X]
    0    4          0.00        10.2058579887 U2  -0.018628[ X]     0.001216[ 0]
    1    1          6.00       -18.6157995064 SC   0.004996[ 8]     0.000008[ X]
    1    2          0.00        -0.4581058809 U1  -0.004410[ 0]     0.001434[ X]
    1    3          0.00         3.9609370617 U2  -0.013866[ X]     0.001692[ 0]
    2    1          0.00         0.6986917155 U1   0.013743[24]    -0.009926[ 0]
    3    1          0.00         3.2318802125 U1   0.000265[ X]    -0.000016[ X]
    s-states N=    1                   Wavefunction at r=0:        -0.016281[ 0]
    s-states N=    2                   Wavefunction at r=0:        -0.012235[ 0]
    s-states N=    3                   Wavefunction at r=0:        -0.011518[ 0]
    s-states N=    4                   Wavefunction at r=0:        -0.035626[ 0]

 Number of target values reached:                                       9 of  16



                             NORMAL TERMINATION OF     
                                                       
                           ****  ******  ****   ****   
                          **  ** ****** **  ** ******  
                          ******   **   **  ** **  **  
                          **  **   **    ****  **  **  


 -------------------------------------------------------------------------------
 -                                                                             -
 -                                DBCSR STATISTICS                             -
 -                                                                             -
 -------------------------------------------------------------------------------
 COUNTER                                    TOTAL       BLAS       SMM       ACC
 flops inhomo. stacks                           0       0.0%      0.0%      0.0%
 flops total                         0.000000E+00       0.0%      0.0%      0.0%
 flops max/rank                      0.000000E+00       0.0%      0.0%      0.0%
 matmuls inhomo. stacks                         0       0.0%      0.0%      0.0%
 matmuls total                                  0       0.0%      0.0%      0.0%
 number of processed stacks                     0       0.0%      0.0%      0.0%
 average stack size                                     0.0       0.0       0.0
 marketing flops                     0.000000E+00
 -------------------------------------------------------------------------------

 MEMORY| Estimated peak process memory [MiB]                                  49

 -------------------------------------------------------------------------------
 -                                                                             -
 -                           R E F E R E N C E S                               -
 -                                                                             -
 -------------------------------------------------------------------------------
 
 CP2K version 7.0 (Development Version), the CP2K developers group (2018).
 CP2K is freely available from https://www.cp2k.org/ .

 Schuett, Ole; Messmer, Peter; Hutter, Juerg; VandeVondele, Joost. 
 Electronic Structure Calculations on Graphics Processing Units, John Wiley & Sons, Ltd, 173-190 (2016). 
 GPU-Accelerated Sparse Matrix-Matrix Multiplication for Linear Scaling Density Functional Theory.
 http://dx.doi.org/10.1002/9781118670712.ch8


 Borstnik, U; VandeVondele, J; Weber, V; Hutter, J. 
 PARALLEL COMPUTING, 40 (5-6), 47-58 (2014). 
 Sparse matrix multiplication: The distributed block-compressed sparse
 row library.
 http://dx.doi.org/10.1016/j.parco.2014.03.012


 Hutter, J; Iannuzzi, M; Schiffmann, F; VandeVondele, J. 
 WILEY INTERDISCIPLINARY REVIEWS-COMPUTATIONAL MOLECULAR SCIENCE, 4 (1), 15-25 (2014). 
 CP2K: atomistic simulations of condensed matter systems.
 http://dx.doi.org/10.1002/wcms.1159


 Frigo, M; Johnson, SG. 
 PROCEEDINGS OF THE IEEE, 93 (2), 216-231 (2005). 
 The design and implementation of FFTW3.
 http://dx.doi.org/10.1109/JPROC.2004.840301


 Perdew, JP; Burke, K; Ernzerhof, M. 
 PHYSICAL REVIEW LETTERS, 77 (18), 3865-3868 (1996). 
 Generalized gradient approximation made simple.
 http://dx.doi.org/10.1103/PhysRevLett.77.3865


 -------------------------------------------------------------------------------
 -                                                                             -
 -                                T I M I N G                                  -
 -                                                                             -
 -------------------------------------------------------------------------------
 SUBROUTINE                       CALLS  ASD         SELF TIME        TOTAL TIME
                                MAXIMUM       AVERAGE  MAXIMUM  AVERAGE  MAXIMUM
 CP2K                                 1  1.0    0.003    0.003 1451.860 1451.860
 atom_code                            1  2.0    0.000    0.000 1451.856 1451.856
 atom_pseudo_opt                      1  3.0    8.495    8.495 1451.856 1451.856
 calculate_atom                    5734  4.0    0.017    0.017 1437.536 1437.536
 calculate_atom_restricted         5734  5.0  508.116  508.116 1437.520 1437.520
 calculate_atom_vxc_lda          283888  6.0  868.177  868.177  929.404  929.404
 xc_functional_eval              283888  7.0    0.680    0.680   60.979   60.979
 pbe_lda_eval                    283888  8.0   60.300   60.300   60.300   60.300
 -------------------------------------------------------------------------------

 The number of warnings for this run is : 0
 
 -------------------------------------------------------------------------------
  **** **** ******  **  PROGRAM ENDED AT                 2018-06-24 19:50:24.578
 ***** ** ***  *** **   PROGRAM RAN ON                                    tcpc01
 **    ****   ******    PROGRAM RAN BY                                    hutter
 ***** **    ** ** **   PROGRAM PROCESS ID                                  1707
  **** **  *******  **  PROGRAM STOPPED IN  /data/hutter/pseudo/UZH2018/PBE/K/q9
