
  **** **** ******  **  PROGRAM STARTED AT               2018-06-24 13:13:31.768
 ***** ** ***  *** **   PROGRAM STARTED ON                                tcpc01
 **    ****   ******    PROGRAM STARTED BY                                hutter
 ***** **    ** ** **   PROGRAM PROCESS ID                                 30781
  **** **  *******  **  PROGRAM STARTED IN /data/hutter/pseudo/UZH2018/PBE/As/q2
                                           3

 CP2K| version string:                    CP2K version 7.0 (Development Version)
 CP2K| source code revision number:                                    svn:18485
 CP2K| cp2kflags: libint fftw3 libxc libderiv_max_am1=5 libint_max_am=6 spglib  
 CP2K| is freely available from                            https://www.cp2k.org/
 CP2K| Program compiled at                         Wed Jun 20 10:41:43 CEST 2018
 CP2K| Program compiled on                                                tcpc01
 CP2K| Program compiled for                                                local
 CP2K| Data directory path                        /data/hutter/CURRENT/cp2k/data
 CP2K| Input file name                                                    As.inp

 GLOBAL| Method name                                                        ATOM
 GLOBAL| Project name                                                    PROJECT
 GLOBAL| Preferred FFT library                                             FFTW3
 GLOBAL| Preferred diagonalization lib.                                       SL
 GLOBAL| Run type                                                   ENERGY_FORCE
 GLOBAL| All-to-all communication in single precision                          F
 GLOBAL| FFTs using library dependent lengths                                  F
 GLOBAL| Global print level                                               MEDIUM
 GLOBAL| Total number of message passing processes                             1
 GLOBAL| Number of threads for this process                                    1
 GLOBAL| This output is from process                                           0
 GLOBAL| CPU model name :  Intel(R) Xeon(R) CPU           X5570  @ 2.93GHz

 MEMORY| system memory details [Kb]
 MEMORY|                        rank 0           min           max       average
 MEMORY| MemTotal             37009584      37009584      37009584      37009584
 MEMORY| MemFree              32243652      32243652      32243652      32243652
 MEMORY| Buffers                284852        284852        284852        284852
 MEMORY| Cached                2035712       2035712       2035712       2035712
 MEMORY| Slab                   271440        271440        271440        271440
 MEMORY| SReclaimable           203364        203364        203364        203364
 MEMORY| MemLikelyFree        34767580      34767580      34767580      34767580


 *** Fundamental physical constants (SI units) ***

 *** Literature: B. J. Mohr and B. N. Taylor,
 ***             CODATA recommended values of the fundamental physical
 ***             constants: 2006, Web Version 5.1
 ***             http://physics.nist.gov/constants

 Speed of light in vacuum [m/s]                             2.99792458000000E+08
 Magnetic constant or permeability of vacuum [N/A**2]       1.25663706143592E-06
 Electric constant or permittivity of vacuum [F/m]          8.85418781762039E-12
 Planck constant (h) [J*s]                                  6.62606896000000E-34
 Planck constant (h-bar) [J*s]                              1.05457162825177E-34
 Elementary charge [C]                                      1.60217648700000E-19
 Electron mass [kg]                                         9.10938215000000E-31
 Electron g factor [ ]                                     -2.00231930436220E+00
 Proton mass [kg]                                           1.67262163700000E-27
 Fine-structure constant                                    7.29735253760000E-03
 Rydberg constant [1/m]                                     1.09737315685270E+07
 Avogadro constant [1/mol]                                  6.02214179000000E+23
 Boltzmann constant [J/K]                                   1.38065040000000E-23
 Atomic mass unit [kg]                                      1.66053878200000E-27
 Bohr radius [m]                                            5.29177208590000E-11

 *** Conversion factors ***

 [u] -> [a.u.]                                              1.82288848426455E+03
 [Angstrom] -> [Bohr] = [a.u.]                              1.88972613288564E+00
 [a.u.] = [Bohr] -> [Angstrom]                              5.29177208590000E-01
 [a.u.] -> [s]                                              2.41888432650478E-17
 [a.u.] -> [fs]                                             2.41888432650478E-02
 [a.u.] -> [J]                                              4.35974393937059E-18
 [a.u.] -> [N]                                              8.23872205491840E-08
 [a.u.] -> [K]                                              3.15774647902944E+05
 [a.u.] -> [kJ/mol]                                         2.62549961709828E+03
 [a.u.] -> [kcal/mol]                                       6.27509468713739E+02
 [a.u.] -> [Pa]                                             2.94210107994716E+13
 [a.u.] -> [bar]                                            2.94210107994716E+08
 [a.u.] -> [atm]                                            2.90362800883016E+08
 [a.u.] -> [eV]                                             2.72113838565563E+01
 [a.u.] -> [Hz]                                             6.57968392072181E+15
 [a.u.] -> [1/cm] (wave numbers)                            2.19474631370540E+05
 [a.u./Bohr**2] -> [1/cm]                                   5.14048714338585E+03
 
 DBCSR| Multiplication driver                                               BLAS
 DBCSR| Multrec recursion limit                                              512
 DBCSR| Multiplication stack size                                           1000
 DBCSR| Maximum elements for images                                    UNLIMITED
 DBCSR| Multiplicative factor virtual images                                   1
 DBCSR| Multiplication size stacks                                             3



                           ****  ******  ****   ****   
                          **  ** ****** **  ** ******  
                          ******   **   **  ** **  **  
                          **  **   **    ****  **  **  
                                                       
                             University of Zurich      
                                 2009 - 2015           
                                                       
                                 Version 0.0           
                                                                   


 Atomic Energy Calculation             Arsenic [As]          Atomic number:   33


 *******************************************************************************
 ************************** Calculate Reference States *************************
 *******************************************************************************

 METHOD    | Restricted Kohn-Sham Calculation
 METHOD    | Relativistic Calculation using Douglas-Kroll 3rd order
 FUNCTIONAL| ROUTINE=NEW
 FUNCTIONAL| PBE:
 FUNCTIONAL| J.P.Perdew, K.Burke, M.Ernzerhof, Phys. Rev. Letter, vol. 77, n 18,
 FUNCTIONAL|  pp. 3865-3868, (1996){spin unpolarized}                           

 Electronic structure
    Total number of core electrons                                          0.00
    Total number of valence electrons                                      33.00
    Total number of electrons                                              33.00
    Multiplicity                                                   not specified
    S      2.00  2.00  2.00  2.00
    P      6.00  6.00  3.00
    D     10.00


 *******************************************************************************
                  Iteration          Convergence                     Energy [au]
 *******************************************************************************
                          1         31.7170                   -2148.475173215511
                          2         9.84953                   -2030.998039628880
                          3         18.2171                   -2206.540382006785
                          4         9.54920                   -2241.119330508266
                          5         4.19957                   -2256.323243991622
                          6        0.139889                   -2260.397220975289
                          7        0.109516E-01               -2260.400714331414
                          8        0.804211E-02               -2260.400780647162
                          9        0.210155E-02               -2260.400874021245
                         10        0.165585E-03               -2260.400875345083
                         11        0.376782E-05               -2260.400875362827
                         12        0.113307E-06               -2260.400875362871
                         13        0.862714E-07               -2260.400875362877

 Energy components [Hartree]           Total Energy ::        -2260.400875362877
                                        Band Energy ::        -1316.730220918305
                                     Kinetic Energy ::         2408.971373915335
                                   Potential Energy ::        -4669.372249278212
                                      Virial (-V/T) ::            1.938326166861
                                        Core Energy ::        -3145.325664169171
                                          XC Energy ::          -83.985303702618
                                     Coulomb Energy ::          968.910092508912
                                        Confinement ::            0.000000044961

 Orbital energies  State     L     Occupation   Energy[a.u.]          Energy[eV]

                       1     0          2.000    -430.201263       -11706.371701
                       2     0          2.000     -54.582632        -1485.268965
                       3     0          2.000      -6.987017         -190.126413
                       4     0          2.000      -0.532179          -14.481337
                       5     0          0.000      -0.004090           -0.111281
                       6     0          0.000       0.183681            4.998210

                       1     1          6.000     -47.861923        -1302.389151
                       2     1          6.000      -4.908367         -133.563456
                       3     1          3.000      -0.190736           -5.190194
                       4     1          0.000       0.052403            1.425950
                       5     1          0.000       0.270233            7.353413

                       1     2         10.000      -1.493009          -40.626842
                       2     2          0.000       0.065016            1.769172
                       3     2          0.000       0.204571            5.566657

                       1     3          0.000       0.145499            3.959217


 Total Electron Density at R=0:                                     61232.756166

 *******************************************************************************
 ********************* Optimize Pseudopotential Parameters *********************
 *******************************************************************************

 POWELL| Start optimization procedure

 POWELL| Total number of parameters in optimization                           13

 POWELL| Initial errors of target values

 Reference configuration          1               Method number                1
    L    N    Occupation      Eigenvalue [eV]           dE [eV]          dCharge 
    0    1          2.00      -189.8444677842 SC   0.281945[16]    -0.000001[ X]
    0    2          2.00       -14.4646702642 VA   0.016667[14]     0.004112[ 0]
    0    3          0.00        -0.1304986377 U1  -0.019218[ 0]     0.004529[ 0]
    0    4          0.00         4.9475914212 U2  -0.050618[ 0]     0.004486[ 0]
    1    1          6.00      -133.0558437171 SC   0.507612[53]    -0.000001[ X]
    1    2          3.00        -5.1848049029 VA   0.005389[ 1]     0.001055[ 0]
    1    3          0.00         1.4250304719 U1  -0.000919[ X]     0.000124[ X]
    1    4          0.00         7.3489787343 U2  -0.004434[ X]     0.000375[ 0]
    2    1         10.00       -40.9013756080 SC  -0.274533[15]    -0.000271[ X]
    2    2          0.00         1.7936611914 U1   0.024489[ 0]    -0.009042[ 0]
    2    3          0.00         5.6723957889 U2   0.105738[ 0]    -0.009754[ 0]
    3    1          0.00         3.9599971617 U1   0.000780[ X]    -0.000007[ X]

 Number of target values reached:                                       8 of  21

 POWELL| Start optimization   1 of total  50               rhobeg =   0.08000000
 POWELL| Inital value of function                                2123.8660055696
 POWELL| Reached   6% of maximal function calls                  2123.8660055696
 POWELL| Reached   8% of maximal function calls                  2123.8660055696
 POWELL| Reached  10% of maximal function calls                  2123.8660055696
 POWELL| Reached  12% of maximal function calls                  2123.8660055696
 POWELL| Reached  14% of maximal function calls                  2123.8660055696
 POWELL| Reached  16% of maximal function calls                  2123.8660055696
 POWELL| Reached  18% of maximal function calls                  2123.8660055696
 POWELL| Reached  20% of maximal function calls                  2123.8660055696
 POWELL| Reached  22% of maximal function calls                  2123.8660055696
 POWELL| Reached  24% of maximal function calls                  2123.8660055696
 POWELL| Reached  26% of maximal function calls                  2123.8660055696
 POWELL| Reached  28% of maximal function calls                  2123.8660055696
 POWELL| Reached  30% of maximal function calls                   542.4214711448
 POWELL| Reached  32% of maximal function calls                   542.4214711448
 POWELL| Reached  34% of maximal function calls                   542.4214711448
 POWELL| Reached  36% of maximal function calls                   542.4214711448
 POWELL| Reached  38% of maximal function calls                   542.4214711448
 POWELL| Reached  40% of maximal function calls                   542.4214711448
 POWELL| Reached  42% of maximal function calls                   542.4214711448
 POWELL| Reached  44% of maximal function calls                   542.4214711448
 POWELL| Reached  46% of maximal function calls                   542.4214711448
 POWELL| Reached  48% of maximal function calls                   542.4214711448
 POWELL| Reached  50% of maximal function calls                   542.4214711448
 POWELL| Reached  52% of maximal function calls                   542.4214711448
 POWELL| Reached  54% of maximal function calls                   542.4214711448
 POWELL| Reached  56% of maximal function calls                   542.4214711448
 POWELL| Reached  57% of maximal function calls                   542.4214711448
 POWELL| Reached  60% of maximal function calls                   542.4214711448
 POWELL| Reached  62% of maximal function calls                   518.7463845936
 POWELL| Reached  64% of maximal function calls                   518.7463845936
 POWELL| Reached  66% of maximal function calls                   518.7463845936
 POWELL| Reached  68% of maximal function calls                   518.7463845936
 POWELL| Reached  70% of maximal function calls                   518.7463845936
 POWELL| Reached  72% of maximal function calls                   518.7463845936
 POWELL| Reached  74% of maximal function calls                   518.7463845936
 POWELL| Reached  76% of maximal function calls                   518.7463845936
 POWELL| Reached  78% of maximal function calls                   518.7463845936
 POWELL| Reached  80% of maximal function calls                   518.7463845936
 POWELL| Reached  82% of maximal function calls                   518.7463845936
 POWELL| Reached  84% of maximal function calls                   518.7463845936
 POWELL| Reached  86% of maximal function calls                   518.7463845936
 POWELL| Reached  88% of maximal function calls                   518.7463845936
 POWELL| Reached  90% of maximal function calls                   518.7463845936
 POWELL| Reached  92% of maximal function calls                   518.7463845936
 POWELL| Reached  94% of maximal function calls                   518.7463845936
 POWELL| Reached  96% of maximal function calls                   518.7463845936
 POWELL| Reached  98% of maximal function calls                   518.7463845936
 POWELL| Reached 100% of maximal function calls                   518.7463845936
 POWELL| Reached 100% of maximal function calls                   518.7463845936
 POWELL| Exceeding maximum number of steps
 POWELL| Reached 100% of maximal function calls                   518.7463845936
 POWELL| RMS average of variables                                   0.0222985692
 POWELL| Start optimization   2 of total  50               rhobeg =   0.07600000
 POWELL| Inital value of function                                 518.7463845936
 POWELL| Reached   6% of maximal function calls                   518.7463845936
 POWELL| Reached   8% of maximal function calls                   518.7463845936
 POWELL| Reached  10% of maximal function calls                   518.7463845936
 POWELL| Reached  12% of maximal function calls                   518.7463845936
 POWELL| Reached  14% of maximal function calls                   518.7463845936
 POWELL| Reached  16% of maximal function calls                   518.7463845936
 POWELL| Reached  18% of maximal function calls                   518.7463845936
 POWELL| Reached  20% of maximal function calls                   518.7463845936
 POWELL| Reached  22% of maximal function calls                   518.7463845936
 POWELL| Reached  24% of maximal function calls                   518.7463845936
 POWELL| Reached  26% of maximal function calls                   518.7463845936
 POWELL| Reached  28% of maximal function calls                   518.7463845936
 POWELL| Reached  30% of maximal function calls                   518.7463845936
 POWELL| Reached  32% of maximal function calls                   518.7463845936
 POWELL| Reached  34% of maximal function calls                   518.7463845936
 POWELL| Reached  36% of maximal function calls                   518.7463845936
 POWELL| Reached  38% of maximal function calls                   518.7463845936
 POWELL| Reached  40% of maximal function calls                   518.7463845936
 POWELL| Reached  42% of maximal function calls                   518.7463845936
 POWELL| Reached  44% of maximal function calls                   518.7463845936
 POWELL| Reached  46% of maximal function calls                   518.7463845936
 POWELL| Reached  48% of maximal function calls                   518.7463845936
 POWELL| Reached  50% of maximal function calls                   518.7463845936
 POWELL| Reached  52% of maximal function calls                   518.7463845936
 POWELL| Reached  54% of maximal function calls                   518.7463845936
 POWELL| Reached  56% of maximal function calls                   518.7463845936
 POWELL| Reached  57% of maximal function calls                   518.7463845936
 POWELL| Reached  60% of maximal function calls                   518.7463845936
 POWELL| Reached  62% of maximal function calls                   518.7463845936
 POWELL| Reached  64% of maximal function calls                   504.0015817154
 POWELL| Reached  66% of maximal function calls                   504.0015817154
 POWELL| Reached  68% of maximal function calls                   491.6623237105
 POWELL| Reached  70% of maximal function calls                   491.6623237105
 POWELL| Reached  72% of maximal function calls                   491.6623237105
 POWELL| Reached  74% of maximal function calls                   491.6623237105
 POWELL| Reached  76% of maximal function calls                   491.6623237105
 POWELL| Reached  78% of maximal function calls                   491.6623237105
 POWELL| Reached  80% of maximal function calls                   491.6623237105
 POWELL| Reached  82% of maximal function calls                   491.6623237105
 POWELL| Reached  84% of maximal function calls                   491.6623237105
 POWELL| Reached  86% of maximal function calls                   491.6623237105
 POWELL| Reached  88% of maximal function calls                   491.6623237105
 POWELL| Reached  90% of maximal function calls                   491.6623237105
 POWELL| Reached  92% of maximal function calls                   491.6623237105
 POWELL| Reached  94% of maximal function calls                   491.6623237105
 POWELL| Reached  96% of maximal function calls                   491.6623237105
 POWELL| Reached  98% of maximal function calls                   491.6623237105
 POWELL| Reached 100% of maximal function calls                   491.6623237105
 POWELL| Reached 100% of maximal function calls                   491.6623237105
 POWELL| Exceeding maximum number of steps
 POWELL| Reached 100% of maximal function calls                   491.6623237105
 POWELL| RMS average of variables                                   0.0042157213
 POWELL| Start optimization   3 of total  50               rhobeg =   0.07220000
 POWELL| Inital value of function                                 491.6623237105
 POWELL| Reached   6% of maximal function calls                   491.6623237105
 POWELL| Reached   8% of maximal function calls                   491.6623237105
 POWELL| Reached  10% of maximal function calls                   491.6623237105
 POWELL| Reached  12% of maximal function calls                   491.6623237105
 POWELL| Reached  14% of maximal function calls                   491.6623237105
 POWELL| Reached  16% of maximal function calls                   491.6623237105
 POWELL| Reached  18% of maximal function calls                   491.6623237105
 POWELL| Reached  20% of maximal function calls                   491.6623237105
 POWELL| Reached  22% of maximal function calls                   491.6623237105
 POWELL| Reached  24% of maximal function calls                   491.6623237105
 POWELL| Reached  26% of maximal function calls                   491.6623237105
 POWELL| Reached  28% of maximal function calls                   491.6623237105
 POWELL| Reached  30% of maximal function calls                   491.6623237105
 POWELL| Reached  32% of maximal function calls                   491.6623237105
 POWELL| Reached  34% of maximal function calls                   491.6623237105
 POWELL| Reached  36% of maximal function calls                   491.6623237105
 POWELL| Reached  38% of maximal function calls                   491.6623237105
 POWELL| Reached  40% of maximal function calls                   491.6623237105
 POWELL| Reached  42% of maximal function calls                   491.6623237105
 POWELL| Reached  44% of maximal function calls                   491.6623237105
 POWELL| Reached  46% of maximal function calls                   491.6623237105
 POWELL| Reached  48% of maximal function calls                   491.6623237105
 POWELL| Reached  50% of maximal function calls                   491.6623237105
 POWELL| Reached  52% of maximal function calls                   491.6623237105
 POWELL| Reached  54% of maximal function calls                   491.6623237105
 POWELL| Reached  56% of maximal function calls                   491.6623237105
 POWELL| Reached  57% of maximal function calls                   491.6623237105
 POWELL| Reached  60% of maximal function calls                   491.6623237105
 POWELL| Reached  62% of maximal function calls                   491.6623237105
 POWELL| Reached  64% of maximal function calls                   491.6623237105
 POWELL| Reached  66% of maximal function calls                   491.6623237105
 POWELL| Reached  68% of maximal function calls                   467.9663124726
 POWELL| Reached  70% of maximal function calls                   467.9663124726
 POWELL| Reached  72% of maximal function calls                   467.9663124726
 POWELL| Reached  74% of maximal function calls                   467.9663124726
 POWELL| Reached  76% of maximal function calls                   467.9663124726
 POWELL| Reached  78% of maximal function calls                   467.9663124726
 POWELL| Reached  80% of maximal function calls                   467.9663124726
 POWELL| Reached  82% of maximal function calls                   467.9663124726
 POWELL| Reached  84% of maximal function calls                   467.9663124726
 POWELL| Reached  86% of maximal function calls                   467.9663124726
 POWELL| Reached  88% of maximal function calls                   467.9663124726
 POWELL| Reached  90% of maximal function calls                   467.9663124726
 POWELL| Reached  92% of maximal function calls                   467.9663124726
 POWELL| Reached  94% of maximal function calls                   467.9663124726
 POWELL| Reached  96% of maximal function calls                   467.9663124726
 POWELL| Reached  98% of maximal function calls                   467.9663124726
 POWELL| Reached 100% of maximal function calls                   467.9663124726
 POWELL| Reached 100% of maximal function calls                   467.9663124726
 POWELL| Exceeding maximum number of steps
 POWELL| Reached 100% of maximal function calls                   467.9663124726
 POWELL| RMS average of variables                                   0.0020024677
 POWELL| Start optimization   4 of total  50               rhobeg =   0.06859000
 POWELL| Inital value of function                                 467.9663124726
 POWELL| Reached   6% of maximal function calls                   467.9663124726
 POWELL| Reached   8% of maximal function calls                   467.9663124726
 POWELL| Reached  10% of maximal function calls                   467.9663124726
 POWELL| Reached  12% of maximal function calls                   467.9663124726
 POWELL| Reached  14% of maximal function calls                   467.9663124726
 POWELL| Reached  16% of maximal function calls                   467.9663124726
 POWELL| Reached  18% of maximal function calls                   467.9663124726
 POWELL| Reached  20% of maximal function calls                   467.9663124726
 POWELL| Reached  22% of maximal function calls                   467.9663124726
 POWELL| Reached  24% of maximal function calls                   467.9663124726
 POWELL| Reached  26% of maximal function calls                   467.9663124726
 POWELL| Reached  28% of maximal function calls                   467.9663124726
 POWELL| Reached  30% of maximal function calls                   467.9663124726
 POWELL| Reached  32% of maximal function calls                   467.9663124726
 POWELL| Reached  34% of maximal function calls                   467.9663124726
 POWELL| Reached  36% of maximal function calls                   467.9663124726
 POWELL| Reached  38% of maximal function calls                   467.9663124726
 POWELL| Reached  40% of maximal function calls                   467.9663124726
 POWELL| Reached  42% of maximal function calls                   467.9663124726
 POWELL| Reached  44% of maximal function calls                   467.9663124726
 POWELL| Reached  46% of maximal function calls                   467.9663124726
 POWELL| Reached  48% of maximal function calls                   467.9663124726
 POWELL| Reached  50% of maximal function calls                   467.9663124726
 POWELL| Reached  52% of maximal function calls                   467.9663124726
 POWELL| Reached  54% of maximal function calls                   467.9663124726
 POWELL| Reached  56% of maximal function calls                   467.9663124726
 POWELL| Reached  57% of maximal function calls                   467.9663124726
 POWELL| Reached  60% of maximal function calls                   467.9663124726
 POWELL| Reached  62% of maximal function calls                   467.9663124726
 POWELL| Reached  64% of maximal function calls                   467.9663124726
 POWELL| Reached  66% of maximal function calls                   467.9663124726
 POWELL| Reached  68% of maximal function calls                   467.9663124726
 POWELL| Reached  70% of maximal function calls                   467.9663124726
 POWELL| Reached  72% of maximal function calls                   467.9663124726
 POWELL| Reached  74% of maximal function calls                   467.9663124726
 POWELL| Reached  76% of maximal function calls                   467.9663124726
 POWELL| Reached  78% of maximal function calls                   467.9663124726
 POWELL| Reached  80% of maximal function calls                   467.9663124726
 POWELL| Reached  82% of maximal function calls                   467.9663124726
 POWELL| Reached  84% of maximal function calls                   467.9663124726
 POWELL| Reached  86% of maximal function calls                   467.9663124726
 POWELL| Reached  88% of maximal function calls                   467.9663124726
 POWELL| Reached  90% of maximal function calls                   467.9663124726
 POWELL| Reached  92% of maximal function calls                   467.9663124726
 POWELL| Reached  94% of maximal function calls                   467.9663124726
 POWELL| Reached  96% of maximal function calls                   467.9663124726
 POWELL| Reached  98% of maximal function calls                   467.9663124726
 POWELL| Reached 100% of maximal function calls                   467.9663124726
 POWELL| Reached 100% of maximal function calls                   467.9663124726
 POWELL| Exceeding maximum number of steps
 POWELL| Reached 100% of maximal function calls                   467.9663124726
 POWELL| RMS average of variables                                   0.0000000000
 POWELL| Number of function evaluations                                       50
 POWELL| Final value of function                                  467.9663124726

 POWELL| Final errors of target values

 Reference configuration          1               Method number                1
    L    N    Occupation      Eigenvalue [eV]           dE [eV]          dCharge 
    0    1          2.00      -190.1963346903 SC  -0.069921[ 4]    -0.000001[ X]
    0    2          2.00       -14.4914989114 VA  -0.010162[23]     0.005391[ 0]
    0    3          0.00        -0.1309970815 U1  -0.019716[ 0]     0.004948[ 0]
    0    4          0.00         4.9444659291 U2  -0.053744[ 0]     0.004694[ 0]
    1    1          6.00      -133.4319703786 SC   0.131486[16]    -0.000000[ X]
    1    2          3.00        -5.1892773042 VA   0.000916[ 0]     0.002314[ 0]
    1    3          0.00         1.4247792179 U1  -0.001170[ X]     0.000064[ X]
    1    4          0.00         7.3457938514 U2  -0.007619[ X]     0.000539[ 0]
    2    1         10.00       -40.3794384233 SC   0.247404[56]    -0.000378[ X]
    2    2          0.00         1.7994182654 U1   0.030246[ 0]    -0.010197[ 0]
    2    3          0.00         5.6867098920 U2   0.120053[ 0]    -0.010362[ 0]
    3    1          0.00         3.9620909091 U1   0.002874[ X]    -0.000009[ X]
    s-states N=    1                   Wavefunction at r=0:         0.694513[ 0]
    s-states N=    2                   Wavefunction at r=0:        -1.316374[ 0]
    s-states N=    3                   Wavefunction at r=0:        -0.458097[ 0]
    s-states N=    4                   Wavefunction at r=0:        -0.631222[ 0]

 Number of target values reached:                                       8 of  21



                             NORMAL TERMINATION OF     
                                                       
                           ****  ******  ****   ****   
                          **  ** ****** **  ** ******  
                          ******   **   **  ** **  **  
                          **  **   **    ****  **  **  


 -------------------------------------------------------------------------------
 -                                                                             -
 -                                DBCSR STATISTICS                             -
 -                                                                             -
 -------------------------------------------------------------------------------
 COUNTER                                    TOTAL       BLAS       SMM       ACC
 flops inhomo. stacks                           0       0.0%      0.0%      0.0%
 flops total                         0.000000E+00       0.0%      0.0%      0.0%
 flops max/rank                      0.000000E+00       0.0%      0.0%      0.0%
 matmuls inhomo. stacks                         0       0.0%      0.0%      0.0%
 matmuls total                                  0       0.0%      0.0%      0.0%
 number of processed stacks                     0       0.0%      0.0%      0.0%
 average stack size                                     0.0       0.0       0.0
 marketing flops                     0.000000E+00
 -------------------------------------------------------------------------------

 MEMORY| Estimated peak process memory [MiB]                                  47

 -------------------------------------------------------------------------------
 -                                                                             -
 -                           R E F E R E N C E S                               -
 -                                                                             -
 -------------------------------------------------------------------------------
 
 CP2K version 7.0 (Development Version), the CP2K developers group (2018).
 CP2K is freely available from https://www.cp2k.org/ .

 Schuett, Ole; Messmer, Peter; Hutter, Juerg; VandeVondele, Joost. 
 Electronic Structure Calculations on Graphics Processing Units, John Wiley & Sons, Ltd, 173-190 (2016). 
 GPU-Accelerated Sparse Matrix-Matrix Multiplication for Linear Scaling Density Functional Theory.
 http://dx.doi.org/10.1002/9781118670712.ch8


 Borstnik, U; VandeVondele, J; Weber, V; Hutter, J. 
 PARALLEL COMPUTING, 40 (5-6), 47-58 (2014). 
 Sparse matrix multiplication: The distributed block-compressed sparse
 row library.
 http://dx.doi.org/10.1016/j.parco.2014.03.012


 Hutter, J; Iannuzzi, M; Schiffmann, F; VandeVondele, J. 
 WILEY INTERDISCIPLINARY REVIEWS-COMPUTATIONAL MOLECULAR SCIENCE, 4 (1), 15-25 (2014). 
 CP2K: atomistic simulations of condensed matter systems.
 http://dx.doi.org/10.1002/wcms.1159


 Frigo, M; Johnson, SG. 
 PROCEEDINGS OF THE IEEE, 93 (2), 216-231 (2005). 
 The design and implementation of FFTW3.
 http://dx.doi.org/10.1109/JPROC.2004.840301


 Perdew, JP; Burke, K; Ernzerhof, M. 
 PHYSICAL REVIEW LETTERS, 77 (18), 3865-3868 (1996). 
 Generalized gradient approximation made simple.
 http://dx.doi.org/10.1103/PhysRevLett.77.3865


 -------------------------------------------------------------------------------
 -                                                                             -
 -                                T I M I N G                                  -
 -                                                                             -
 -------------------------------------------------------------------------------
 SUBROUTINE                       CALLS  ASD         SELF TIME        TOTAL TIME
                                MAXIMUM       AVERAGE  MAXIMUM  AVERAGE  MAXIMUM
 CP2K                                 1  1.0    0.003    0.003  203.305  203.305
 atom_code                            1  2.0    0.000    0.000  203.301  203.301
 atom_pseudo_opt                      1  3.0    0.571    0.571  203.301  203.301
 calculate_atom                     304  4.0    0.001    0.001  202.400  202.400
 calculate_atom_restricted          304  5.0   70.937   70.937  202.399  202.399
 calculate_atom_vxc_lda           39684  6.0  123.005  123.005  131.462  131.462
 xc_functional_eval               39684  7.0    0.100    0.100    8.413    8.413
 pbe_lda_eval                     39684  8.0    8.314    8.314    8.314    8.314
 -------------------------------------------------------------------------------

 The number of warnings for this run is : 0
 
 -------------------------------------------------------------------------------
  **** **** ******  **  PROGRAM ENDED AT                 2018-06-24 13:16:55.115
 ***** ** ***  *** **   PROGRAM RAN ON                                    tcpc01
 **    ****   ******    PROGRAM RAN BY                                    hutter
 ***** **    ** ** **   PROGRAM PROCESS ID                                 30781
  **** **  *******  **  PROGRAM STOPPED IN /data/hutter/pseudo/UZH2018/PBE/As/q2
                                           3

  **** **** ******  **  PROGRAM STARTED AT               2018-06-24 13:17:40.852
 ***** ** ***  *** **   PROGRAM STARTED ON                                tcpc01
 **    ****   ******    PROGRAM STARTED BY                                hutter
 ***** **    ** ** **   PROGRAM PROCESS ID                                 30850
  **** **  *******  **  PROGRAM STARTED IN /data/hutter/pseudo/UZH2018/PBE/As/q2
                                           3

 CP2K| version string:                    CP2K version 7.0 (Development Version)
 CP2K| source code revision number:                                    svn:18485
 CP2K| cp2kflags: libint fftw3 libxc libderiv_max_am1=5 libint_max_am=6 spglib  
 CP2K| is freely available from                            https://www.cp2k.org/
 CP2K| Program compiled at                         Wed Jun 20 10:41:43 CEST 2018
 CP2K| Program compiled on                                                tcpc01
 CP2K| Program compiled for                                                local
 CP2K| Data directory path                        /data/hutter/CURRENT/cp2k/data
 CP2K| Input file name                                                    As.inp

 GLOBAL| Method name                                                        ATOM
 GLOBAL| Project name                                                    PROJECT
 GLOBAL| Preferred FFT library                                             FFTW3
 GLOBAL| Preferred diagonalization lib.                                       SL
 GLOBAL| Run type                                                   ENERGY_FORCE
 GLOBAL| All-to-all communication in single precision                          F
 GLOBAL| FFTs using library dependent lengths                                  F
 GLOBAL| Global print level                                               MEDIUM
 GLOBAL| Total number of message passing processes                             1
 GLOBAL| Number of threads for this process                                    1
 GLOBAL| This output is from process                                           0
 GLOBAL| CPU model name :  Intel(R) Xeon(R) CPU           X5570  @ 2.93GHz

 MEMORY| system memory details [Kb]
 MEMORY|                        rank 0           min           max       average
 MEMORY| MemTotal             37009584      37009584      37009584      37009584
 MEMORY| MemFree              32256068      32256068      32256068      32256068
 MEMORY| Buffers                285040        285040        285040        285040
 MEMORY| Cached                2036216       2036216       2036216       2036216
 MEMORY| Slab                   271492        271492        271492        271492
 MEMORY| SReclaimable           203368        203368        203368        203368
 MEMORY| MemLikelyFree        34780692      34780692      34780692      34780692


 *** Fundamental physical constants (SI units) ***

 *** Literature: B. J. Mohr and B. N. Taylor,
 ***             CODATA recommended values of the fundamental physical
 ***             constants: 2006, Web Version 5.1
 ***             http://physics.nist.gov/constants

 Speed of light in vacuum [m/s]                             2.99792458000000E+08
 Magnetic constant or permeability of vacuum [N/A**2]       1.25663706143592E-06
 Electric constant or permittivity of vacuum [F/m]          8.85418781762039E-12
 Planck constant (h) [J*s]                                  6.62606896000000E-34
 Planck constant (h-bar) [J*s]                              1.05457162825177E-34
 Elementary charge [C]                                      1.60217648700000E-19
 Electron mass [kg]                                         9.10938215000000E-31
 Electron g factor [ ]                                     -2.00231930436220E+00
 Proton mass [kg]                                           1.67262163700000E-27
 Fine-structure constant                                    7.29735253760000E-03
 Rydberg constant [1/m]                                     1.09737315685270E+07
 Avogadro constant [1/mol]                                  6.02214179000000E+23
 Boltzmann constant [J/K]                                   1.38065040000000E-23
 Atomic mass unit [kg]                                      1.66053878200000E-27
 Bohr radius [m]                                            5.29177208590000E-11

 *** Conversion factors ***

 [u] -> [a.u.]                                              1.82288848426455E+03
 [Angstrom] -> [Bohr] = [a.u.]                              1.88972613288564E+00
 [a.u.] = [Bohr] -> [Angstrom]                              5.29177208590000E-01
 [a.u.] -> [s]                                              2.41888432650478E-17
 [a.u.] -> [fs]                                             2.41888432650478E-02
 [a.u.] -> [J]                                              4.35974393937059E-18
 [a.u.] -> [N]                                              8.23872205491840E-08
 [a.u.] -> [K]                                              3.15774647902944E+05
 [a.u.] -> [kJ/mol]                                         2.62549961709828E+03
 [a.u.] -> [kcal/mol]                                       6.27509468713739E+02
 [a.u.] -> [Pa]                                             2.94210107994716E+13
 [a.u.] -> [bar]                                            2.94210107994716E+08
 [a.u.] -> [atm]                                            2.90362800883016E+08
 [a.u.] -> [eV]                                             2.72113838565563E+01
 [a.u.] -> [Hz]                                             6.57968392072181E+15
 [a.u.] -> [1/cm] (wave numbers)                            2.19474631370540E+05
 [a.u./Bohr**2] -> [1/cm]                                   5.14048714338585E+03
 
 DBCSR| Multiplication driver                                               BLAS
 DBCSR| Multrec recursion limit                                              512
 DBCSR| Multiplication stack size                                           1000
 DBCSR| Maximum elements for images                                    UNLIMITED
 DBCSR| Multiplicative factor virtual images                                   1
 DBCSR| Multiplication size stacks                                             3



                           ****  ******  ****   ****   
                          **  ** ****** **  ** ******  
                          ******   **   **  ** **  **  
                          **  **   **    ****  **  **  
                                                       
                             University of Zurich      
                                 2009 - 2015           
                                                       
                                 Version 0.0           
                                                                   


 Atomic Energy Calculation             Arsenic [As]          Atomic number:   33


 *******************************************************************************
 ************************** Calculate Reference States *************************
 *******************************************************************************

 METHOD    | Restricted Kohn-Sham Calculation
 METHOD    | Relativistic Calculation using Douglas-Kroll 3rd order
 FUNCTIONAL| ROUTINE=NEW
 FUNCTIONAL| PBE:
 FUNCTIONAL| J.P.Perdew, K.Burke, M.Ernzerhof, Phys. Rev. Letter, vol. 77, n 18,
 FUNCTIONAL|  pp. 3865-3868, (1996){spin unpolarized}                           

 Electronic structure
    Total number of core electrons                                          0.00
    Total number of valence electrons                                      33.00
    Total number of electrons                                              33.00
    Multiplicity                                                   not specified
    S      2.00  2.00  2.00  2.00
    P      6.00  6.00  3.00
    D     10.00


 *******************************************************************************
                  Iteration          Convergence                     Energy [au]
 *******************************************************************************
                          1         31.7170                   -2148.475173215511
                          2         9.84953                   -2030.998039628880
                          3         18.2171                   -2206.540382006785
                          4         9.54920                   -2241.119330508266
                          5         4.19957                   -2256.323243991622
                          6        0.139889                   -2260.397220975289
                          7        0.109516E-01               -2260.400714331414
                          8        0.804211E-02               -2260.400780647162
                          9        0.210155E-02               -2260.400874021245
                         10        0.165585E-03               -2260.400875345083
                         11        0.376782E-05               -2260.400875362827
                         12        0.113307E-06               -2260.400875362871
                         13        0.862714E-07               -2260.400875362877

 Energy components [Hartree]           Total Energy ::        -2260.400875362877
                                        Band Energy ::        -1316.730220918305
                                     Kinetic Energy ::         2408.971373915335
                                   Potential Energy ::        -4669.372249278212
                                      Virial (-V/T) ::            1.938326166861
                                        Core Energy ::        -3145.325664169171
                                          XC Energy ::          -83.985303702618
                                     Coulomb Energy ::          968.910092508912
                                        Confinement ::            0.000000044961

 Orbital energies  State     L     Occupation   Energy[a.u.]          Energy[eV]

                       1     0          2.000    -430.201263       -11706.371701
                       2     0          2.000     -54.582632        -1485.268965
                       3     0          2.000      -6.987017         -190.126413
                       4     0          2.000      -0.532179          -14.481337
                       5     0          0.000      -0.004090           -0.111281
                       6     0          0.000       0.183681            4.998210

                       1     1          6.000     -47.861923        -1302.389151
                       2     1          6.000      -4.908367         -133.563456
                       3     1          3.000      -0.190736           -5.190194
                       4     1          0.000       0.052403            1.425950
                       5     1          0.000       0.270233            7.353413

                       1     2         10.000      -1.493009          -40.626842
                       2     2          0.000       0.065016            1.769172
                       3     2          0.000       0.204571            5.566657

                       1     3          0.000       0.145499            3.959217


 Total Electron Density at R=0:                                     61232.756166

 *******************************************************************************
 ********************* Optimize Pseudopotential Parameters *********************
 *******************************************************************************

 POWELL| Start optimization procedure

 POWELL| Total number of parameters in optimization                           13

 POWELL| Initial errors of target values

 Reference configuration          1               Method number                1
    L    N    Occupation      Eigenvalue [eV]           dE [eV]          dCharge 
    0    1          2.00      -190.1963347504 SC  -0.069922[ 4]    -0.000001[ X]
    0    2          2.00       -14.4914989113 VA  -0.010162[23]     0.005391[ 0]
    0    3          0.00        -0.1309972522 U1  -0.019716[ 0]     0.004948[ 0]
    0    4          0.00         4.9444657098 U2  -0.053744[ 0]     0.004694[ 0]
    1    1          6.00      -133.4319701107 SC   0.131486[16]    -0.000000[ X]
    1    2          3.00        -5.1892773060 VA   0.000916[ 0]     0.002314[ 0]
    1    3          0.00         1.4247789987 U1  -0.001171[ X]     0.000064[ X]
    1    4          0.00         7.3457936829 U2  -0.007619[ X]     0.000539[ 0]
    2    1         10.00       -40.3794383320 SC   0.247404[56]    -0.000378[ X]
    2    2          0.00         1.7994180705 U1   0.030246[ 0]    -0.010197[ 0]
    2    3          0.00         5.6867097083 U2   0.120052[ 0]    -0.010362[ 0]
    3    1          0.00         3.9620906369 U1   0.002874[ X]    -0.000009[ X]

 Number of target values reached:                                       8 of  21

 POWELL| Start optimization   1 of total 100               rhobeg =   0.00080000
 POWELL| Inital value of function                                 467.9668360163
 POWELL| Reached   6% of maximal function calls                   467.9668360163
 POWELL| Reached   8% of maximal function calls                   467.9668360163
 POWELL| Reached  10% of maximal function calls                   467.9668360163
 POWELL| Reached  12% of maximal function calls                   322.8217348997
 POWELL| Reached  14% of maximal function calls                   322.8217348997
 POWELL| Reached  16% of maximal function calls                   298.0914093431
 POWELL| Reached  18% of maximal function calls                   298.0914093431
 POWELL| Reached  20% of maximal function calls                   298.0914093431
 POWELL| Reached  22% of maximal function calls                   298.0914093431
 POWELL| Reached  24% of maximal function calls                   298.0914093431
 POWELL| Reached  26% of maximal function calls                   298.0914093431
 POWELL| Reached  28% of maximal function calls                   298.0914093431
 POWELL| Reached  30% of maximal function calls                   298.0914093431
 POWELL| Reached  32% of maximal function calls                   298.0914093431
 POWELL| Reached  34% of maximal function calls                   298.0914093431
 POWELL| Reached  36% of maximal function calls                   298.0914093431
 POWELL| Reached  38% of maximal function calls                   298.0914093431
 POWELL| Reached  40% of maximal function calls                   298.0914093431
 POWELL| Reached  42% of maximal function calls                   298.0914093431
 POWELL| Reached  44% of maximal function calls                   298.0914093431
 POWELL| Reached  46% of maximal function calls                   298.0914093431
 POWELL| Reached  48% of maximal function calls                   298.0914093431
 POWELL| Reached  50% of maximal function calls                   298.0914093431
 POWELL| Reached  52% of maximal function calls                   298.0914093431
 POWELL| Reached  54% of maximal function calls                   298.0914093431
 POWELL| Reached  56% of maximal function calls                   298.0914093431
 POWELL| Reached  57% of maximal function calls                   243.5538768584
 POWELL| Reached  60% of maximal function calls                   243.5538768584
 POWELL| Reached  62% of maximal function calls                   243.5538768584
 POWELL| Reached  64% of maximal function calls                   223.0268309145
 POWELL| Reached  66% of maximal function calls                   178.3652873769
 POWELL| Reached  68% of maximal function calls                   136.8732229442
 POWELL| Reached  70% of maximal function calls                   123.0276190821
 POWELL| Reached  72% of maximal function calls                   123.0276190821
 POWELL| Reached  74% of maximal function calls                   118.5538348268
 POWELL| Reached  76% of maximal function calls                   113.8097168378
 POWELL| Reached  78% of maximal function calls                   103.6031496348
 POWELL| Reached  80% of maximal function calls                    78.9835981027
 POWELL| Reached  82% of maximal function calls                    49.6605245276
 POWELL| Reached  84% of maximal function calls                    17.5087322125
 POWELL| Reached  86% of maximal function calls                    17.5087322125
 POWELL| Reached  88% of maximal function calls                    16.7231283128
 POWELL| Reached  90% of maximal function calls                    12.0341300207
 POWELL| Reached  92% of maximal function calls                     9.1782152025
 POWELL| Reached  94% of maximal function calls                     6.7198419861
 POWELL| Reached  96% of maximal function calls                     6.2684545645
 POWELL| Reached  98% of maximal function calls                     4.9910652538
 POWELL| Reached 100% of maximal function calls                     4.9910652538
 POWELL| Reached 100% of maximal function calls                     4.9910652538
 POWELL| Exceeding maximum number of steps
 POWELL| Reached 100% of maximal function calls                     4.9910652538
 POWELL| RMS average of variables                                   0.0010267336
 POWELL| Start optimization   2 of total 100               rhobeg =   0.00078400
 POWELL| Inital value of function                                   4.9910652538
 POWELL| Reached   6% of maximal function calls                     4.9910652538
 POWELL| Reached   8% of maximal function calls                     4.9910652538
 POWELL| Reached  10% of maximal function calls                     4.9910652538
 POWELL| Reached  12% of maximal function calls                     4.9910652538
 POWELL| Reached  14% of maximal function calls                     4.9910652538
 POWELL| Reached  16% of maximal function calls                     4.9910652538
 POWELL| Reached  18% of maximal function calls                     4.9910652538
 POWELL| Reached  20% of maximal function calls                     4.9910652538
 POWELL| Reached  22% of maximal function calls                     4.9910652538
 POWELL| Reached  24% of maximal function calls                     4.9910652538
 POWELL| Reached  26% of maximal function calls                     4.9910652538
 POWELL| Reached  28% of maximal function calls                     4.9910652538
 POWELL| Reached  30% of maximal function calls                     4.9910652538
 POWELL| Reached  32% of maximal function calls                     4.9910652538
 POWELL| Reached  34% of maximal function calls                     4.7925800789
 POWELL| Reached  36% of maximal function calls                     4.4910572707
 POWELL| Reached  38% of maximal function calls                     4.4910572707
 POWELL| Reached  40% of maximal function calls                     4.4910572707
 POWELL| Reached  42% of maximal function calls                     4.4910572707
 POWELL| Reached  44% of maximal function calls                     4.4910572707
 POWELL| Reached  46% of maximal function calls                     4.4910572707
 POWELL| Reached  48% of maximal function calls                     4.4910572707
 POWELL| Reached  50% of maximal function calls                     4.4858507565
 POWELL| Reached  52% of maximal function calls                     4.4858507565
 POWELL| Reached  54% of maximal function calls                     4.4076169142
 POWELL| Reached  56% of maximal function calls                     4.4076169142
 POWELL| Reached  57% of maximal function calls                     4.4076169142
 POWELL| Reached  60% of maximal function calls                     4.4076169142
 POWELL| Reached  62% of maximal function calls                     4.4076169142
 POWELL| Reached  64% of maximal function calls                     4.4076169142
 POWELL| Reached  66% of maximal function calls                     4.4076169142
 POWELL| Reached  68% of maximal function calls                     4.4076169142
 POWELL| Reached  70% of maximal function calls                     4.3989813263
 POWELL| Reached  72% of maximal function calls                     4.3931225611
 POWELL| Reached  74% of maximal function calls                     4.3931225611
 POWELL| Reached  76% of maximal function calls                     4.3931225611
 POWELL| Reached  78% of maximal function calls                     4.3931065261
 POWELL| Reached  80% of maximal function calls                     4.3929661461
 POWELL| Reached  82% of maximal function calls                     4.3929661461
 POWELL| Reached  84% of maximal function calls                     4.3928257267
 POWELL| Reached  86% of maximal function calls                     4.3928257267
 POWELL| Reached  88% of maximal function calls                     4.3928188327
 POWELL| Reached  90% of maximal function calls                     4.3928188327
 POWELL| Reached  92% of maximal function calls                     4.3928188327
 POWELL| Reached  94% of maximal function calls                     4.3928188327
 POWELL| Reached  96% of maximal function calls                     4.3927621752
 POWELL| Reached  98% of maximal function calls                     4.3926836172
 POWELL| Reached 100% of maximal function calls                     4.3926836172
 POWELL| Reached 100% of maximal function calls                     4.3924599811
 POWELL| Exceeding maximum number of steps
 POWELL| Reached 100% of maximal function calls                     4.3924599811
 POWELL| RMS average of variables                                   0.0002176167
 POWELL| Start optimization   3 of total 100               rhobeg =   0.00076832
 POWELL| Inital value of function                                   4.3924599811
 POWELL| Reached   6% of maximal function calls                     4.3924599811
 POWELL| Reached   8% of maximal function calls                     4.3924599811
 POWELL| Reached  10% of maximal function calls                     4.3924599811
 POWELL| Reached  12% of maximal function calls                     4.3924599811
 POWELL| Reached  14% of maximal function calls                     4.3924599811
 POWELL| Reached  16% of maximal function calls                     4.3924599811
 POWELL| Reached  18% of maximal function calls                     4.3924599811
 POWELL| Reached  20% of maximal function calls                     4.3924599811
 POWELL| Reached  22% of maximal function calls                     4.3924599811
 POWELL| Reached  24% of maximal function calls                     4.3924599811
 POWELL| Reached  26% of maximal function calls                     4.3924599811
 POWELL| Reached  28% of maximal function calls                     4.3924599811
 POWELL| Reached  30% of maximal function calls                     4.3924599811
 POWELL| Reached  32% of maximal function calls                     4.3924599811
 POWELL| Reached  34% of maximal function calls                     4.2348049505
 POWELL| Reached  36% of maximal function calls                     4.2017981302
 POWELL| Reached  38% of maximal function calls                     4.2017981302
 POWELL| Reached  40% of maximal function calls                     4.2017981302
 POWELL| Reached  42% of maximal function calls                     4.2017981302
 POWELL| Reached  44% of maximal function calls                     4.2017981302
 POWELL| Reached  46% of maximal function calls                     4.2017981302
 POWELL| Reached  48% of maximal function calls                     4.2017981302
 POWELL| Reached  50% of maximal function calls                     4.2017981302
 POWELL| Reached  52% of maximal function calls                     4.2017981302
 POWELL| Reached  54% of maximal function calls                     4.2017981302
 POWELL| Reached  56% of maximal function calls                     4.2017981302
 POWELL| Reached  57% of maximal function calls                     4.2001827463
 POWELL| Reached  60% of maximal function calls                     4.2001827463
 POWELL| Reached  62% of maximal function calls                     4.2001827463
 POWELL| Reached  64% of maximal function calls                     4.2001827463
 POWELL| Reached  66% of maximal function calls                     4.2001827463
 POWELL| Reached  68% of maximal function calls                     4.1352225009
 POWELL| Reached  70% of maximal function calls                     4.1326067564
 POWELL| Reached  72% of maximal function calls                     4.1326067564
 POWELL| Reached  74% of maximal function calls                     4.1326067564
 POWELL| Reached  76% of maximal function calls                     4.1326067564
 POWELL| Reached  78% of maximal function calls                     4.1326067564
 POWELL| Reached  80% of maximal function calls                     4.1326067564
 POWELL| Reached  82% of maximal function calls                     4.1315825765
 POWELL| Reached  84% of maximal function calls                     4.1315825765
 POWELL| Reached  86% of maximal function calls                     4.1315825765
 POWELL| Reached  88% of maximal function calls                     4.1315825765
 POWELL| Reached  90% of maximal function calls                     4.1315825765
 POWELL| Reached  92% of maximal function calls                     4.1315825765
 POWELL| Reached  94% of maximal function calls                     4.1270172321
 POWELL| Reached  96% of maximal function calls                     4.1270172321
 POWELL| Reached  98% of maximal function calls                     4.1270172321
 POWELL| Reached 100% of maximal function calls                     4.1270172321
 POWELL| Reached 100% of maximal function calls                     4.1266498156
 POWELL| Exceeding maximum number of steps
 POWELL| Reached 100% of maximal function calls                     4.1266498156
 POWELL| RMS average of variables                                   0.0002344658
 POWELL| Start optimization   4 of total 100               rhobeg =   0.00075295
 POWELL| Inital value of function                                   4.1266498156
 POWELL| Reached   6% of maximal function calls                     4.1266498156
 POWELL| Reached   8% of maximal function calls                     4.1266498156
 POWELL| Reached  10% of maximal function calls                     4.1266498156
 POWELL| Reached  12% of maximal function calls                     4.1266498156
 POWELL| Reached  14% of maximal function calls                     4.1266498156
 POWELL| Reached  16% of maximal function calls                     4.1266498156
 POWELL| Reached  18% of maximal function calls                     4.1266498156
 POWELL| Reached  20% of maximal function calls                     4.1266498156
 POWELL| Reached  22% of maximal function calls                     4.1266498156
 POWELL| Reached  24% of maximal function calls                     4.0527292204
 POWELL| Reached  26% of maximal function calls                     4.0527292204
 POWELL| Reached  28% of maximal function calls                     4.0527292204
 POWELL| Reached  30% of maximal function calls                     4.0527292204
 POWELL| Reached  32% of maximal function calls                     4.0527292204
 POWELL| Reached  34% of maximal function calls                     4.0481452625
 POWELL| Reached  36% of maximal function calls                     4.0481452625
 POWELL| Reached  38% of maximal function calls                     4.0481452625
 POWELL| Reached  40% of maximal function calls                     4.0481452625
 POWELL| Reached  42% of maximal function calls                     4.0481452625
 POWELL| Reached  44% of maximal function calls                     4.0481452625
 POWELL| Reached  46% of maximal function calls                     4.0481452625
 POWELL| Reached  48% of maximal function calls                     4.0481452625
 POWELL| Reached  50% of maximal function calls                     4.0481452625
 POWELL| Reached  52% of maximal function calls                     4.0481452625
 POWELL| Reached  54% of maximal function calls                     4.0481452625
 POWELL| Reached  56% of maximal function calls                     4.0481452625
 POWELL| Reached  57% of maximal function calls                     4.0422479608
 POWELL| Reached  60% of maximal function calls                     4.0422479608
 POWELL| Reached  62% of maximal function calls                     4.0347183149
 POWELL| Reached  64% of maximal function calls                     4.0338553457
 POWELL| Reached  66% of maximal function calls                     4.0338553457
 POWELL| Reached  68% of maximal function calls                     4.0338553457
 POWELL| Reached  70% of maximal function calls                     4.0335723841
 POWELL| Reached  72% of maximal function calls                     4.0333213511
 POWELL| Reached  74% of maximal function calls                     4.0333146798
 POWELL| Reached  76% of maximal function calls                     4.0332939685
 POWELL| Reached  78% of maximal function calls                     4.0332939685
 POWELL| Reached  80% of maximal function calls                     4.0326478899
 POWELL| Reached  82% of maximal function calls                     4.0326478899
 POWELL| Reached  84% of maximal function calls                     4.0326337179
 POWELL| Reached  86% of maximal function calls                     4.0326337179
 POWELL| Reached  88% of maximal function calls                     4.0326337179
 POWELL| Reached  90% of maximal function calls                     4.0326291985
 POWELL| Reached  92% of maximal function calls                     4.0326291985
 POWELL| Reached  94% of maximal function calls                     4.0326291985
 POWELL| Reached  96% of maximal function calls                     4.0326285755
 POWELL| Reached  98% of maximal function calls                     4.0326285755
 POWELL| Reached 100% of maximal function calls                     4.0326273516
 POWELL| Reached 100% of maximal function calls                     4.0326273516
 POWELL| Exceeding maximum number of steps
 POWELL| Reached 100% of maximal function calls                     4.0326273516
 POWELL| RMS average of variables                                   0.0002326460
 POWELL| Start optimization   5 of total 100               rhobeg =   0.00073789
 POWELL| Inital value of function                                   4.0326273516
 POWELL| Reached   6% of maximal function calls                     4.0326273516
 POWELL| Reached   8% of maximal function calls                     4.0326273516
 POWELL| Reached  10% of maximal function calls                     4.0326273516
 POWELL| Reached  12% of maximal function calls                     4.0326273516
 POWELL| Reached  14% of maximal function calls                     4.0326273516
 POWELL| Reached  16% of maximal function calls                     4.0326273516
 POWELL| Reached  18% of maximal function calls                     4.0326273516
 POWELL| Reached  20% of maximal function calls                     4.0326273516
 POWELL| Reached  22% of maximal function calls                     4.0326273516
 POWELL| Reached  24% of maximal function calls                     4.0290357742
 POWELL| Reached  26% of maximal function calls                     4.0290357742
 POWELL| Reached  28% of maximal function calls                     4.0290357742
 POWELL| Reached  30% of maximal function calls                     4.0290357742
 POWELL| Reached  32% of maximal function calls                     4.0290357742
 POWELL| Reached  34% of maximal function calls                     3.9870224738
 POWELL| Reached  36% of maximal function calls                     3.9870224738
 POWELL| Reached  38% of maximal function calls                     3.9870224738
 POWELL| Reached  40% of maximal function calls                     3.9870224738
 POWELL| Reached  42% of maximal function calls                     3.9870224738
 POWELL| Reached  44% of maximal function calls                     3.9870224738
 POWELL| Reached  46% of maximal function calls                     3.9870224738
 POWELL| Reached  48% of maximal function calls                     3.9870224738
 POWELL| Reached  50% of maximal function calls                     3.9870224738
 POWELL| Reached  52% of maximal function calls                     3.9870224738
 POWELL| Reached  54% of maximal function calls                     3.9870224738
 POWELL| Reached  56% of maximal function calls                     3.9870224738
 POWELL| Reached  57% of maximal function calls                     3.9850313468
 POWELL| Reached  60% of maximal function calls                     3.9850313468
 POWELL| Reached  62% of maximal function calls                     3.9708541010
 POWELL| Reached  64% of maximal function calls                     3.9699826205
 POWELL| Reached  66% of maximal function calls                     3.9699826205
 POWELL| Reached  68% of maximal function calls                     3.9699826205
 POWELL| Reached  70% of maximal function calls                     3.9624736097
 POWELL| Reached  72% of maximal function calls                     3.9571872115
 POWELL| Reached  74% of maximal function calls                     3.9571502444
 POWELL| Reached  76% of maximal function calls                     3.9570185532
 POWELL| Reached  78% of maximal function calls                     3.9570185532
 POWELL| Reached  80% of maximal function calls                     3.9569810053
 POWELL| Reached  82% of maximal function calls                     3.9569810053
 POWELL| Reached  84% of maximal function calls                     3.9569223680
 POWELL| Reached  86% of maximal function calls                     3.9569223680
 POWELL| Reached  88% of maximal function calls                     3.9569223680
 POWELL| Reached  90% of maximal function calls                     3.9567792205
 POWELL| Reached  92% of maximal function calls                     3.9567792205
 POWELL| Reached  94% of maximal function calls                     3.9567792205
 POWELL| Reached  96% of maximal function calls                     3.9567792205
 POWELL| Reached  98% of maximal function calls                     3.9567005246
 POWELL| Reached 100% of maximal function calls                     3.9567005246
 POWELL| Reached 100% of maximal function calls                     3.9559589297
 POWELL| Exceeding maximum number of steps
 POWELL| Reached 100% of maximal function calls                     3.9559589297
 POWELL| RMS average of variables                                   0.0002279903
 POWELL| Start optimization   6 of total 100               rhobeg =   0.00072314
 POWELL| Inital value of function                                   3.9559589297
 POWELL| Reached   6% of maximal function calls                     3.9559589297
 POWELL| Reached   8% of maximal function calls                     3.9559589297
 POWELL| Reached  10% of maximal function calls                     3.9559589297
 POWELL| Reached  12% of maximal function calls                     3.9559589297
 POWELL| Reached  14% of maximal function calls                     3.9559589297
 POWELL| Reached  16% of maximal function calls                     3.9559589297
 POWELL| Reached  18% of maximal function calls                     3.9559589297
 POWELL| Reached  20% of maximal function calls                     3.9559589297
 POWELL| Reached  22% of maximal function calls                     3.9559589297
 POWELL| Reached  24% of maximal function calls                     3.9559589297
 POWELL| Reached  26% of maximal function calls                     3.9559589297
 POWELL| Reached  28% of maximal function calls                     3.9559589297
 POWELL| Reached  30% of maximal function calls                     3.9559589297
 POWELL| Reached  32% of maximal function calls                     3.9559589297
 POWELL| Reached  34% of maximal function calls                     3.9482870173
 POWELL| Reached  36% of maximal function calls                     3.9482870173
 POWELL| Reached  38% of maximal function calls                     3.9482870173
 POWELL| Reached  40% of maximal function calls                     3.9482870173
 POWELL| Reached  42% of maximal function calls                     3.9482870173
 POWELL| Reached  44% of maximal function calls                     3.9482870173
 POWELL| Reached  46% of maximal function calls                     3.9482870173
 POWELL| Reached  48% of maximal function calls                     3.9482870173
 POWELL| Reached  50% of maximal function calls                     3.9482870173
 POWELL| Reached  52% of maximal function calls                     3.9482870173
 POWELL| Reached  54% of maximal function calls                     3.9482870173
 POWELL| Reached  56% of maximal function calls                     3.8841916302
 POWELL| Reached  57% of maximal function calls                     3.8841916302
 POWELL| Reached  60% of maximal function calls                     3.8841916302
 POWELL| Reached  62% of maximal function calls                     3.8841916302
 POWELL| Reached  64% of maximal function calls                     3.8833038231
 POWELL| Reached  66% of maximal function calls                     3.8833038231
 POWELL| Reached  68% of maximal function calls                     3.8833038231
 POWELL| Reached  70% of maximal function calls                     3.8833038231
 POWELL| Reached  72% of maximal function calls                     3.8833038231
 POWELL| Reached  74% of maximal function calls                     3.8833038231
 POWELL| Reached  76% of maximal function calls                     3.8833038231
 POWELL| Reached  78% of maximal function calls                     3.8833038231
 POWELL| Reached  80% of maximal function calls                     3.8833038231
 POWELL| Reached  82% of maximal function calls                     3.8833038231
 POWELL| Reached  84% of maximal function calls                     3.8832611052
 POWELL| Reached  86% of maximal function calls                     3.8832611052
 POWELL| Reached  88% of maximal function calls                     3.8832596876
 POWELL| Reached  90% of maximal function calls                     3.8832596876
 POWELL| Reached  92% of maximal function calls                     3.8832596876
 POWELL| Reached  94% of maximal function calls                     3.8832596876
 POWELL| Reached  96% of maximal function calls                     3.8832596876
 POWELL| Reached  98% of maximal function calls                     3.8832596876
 POWELL| Reached 100% of maximal function calls                     3.8830900021
 POWELL| Reached 100% of maximal function calls                     3.8828152508
 POWELL| Exceeding maximum number of steps
 POWELL| Reached 100% of maximal function calls                     3.8828152508
 POWELL| RMS average of variables                                   0.0002005800
 POWELL| Start optimization   7 of total 100               rhobeg =   0.00070867
 POWELL| Inital value of function                                   3.8828152508
 POWELL| Reached   6% of maximal function calls                     3.8828152508
 POWELL| Reached   8% of maximal function calls                     3.8828152508
 POWELL| Reached  10% of maximal function calls                     3.8828152508
 POWELL| Reached  12% of maximal function calls                     3.8828152508
 POWELL| Reached  14% of maximal function calls                     3.8828152508
 POWELL| Reached  16% of maximal function calls                     3.8828152508
 POWELL| Reached  18% of maximal function calls                     3.8828152508
 POWELL| Reached  20% of maximal function calls                     3.8828152508
 POWELL| Reached  22% of maximal function calls                     3.8828152508
 POWELL| Reached  24% of maximal function calls                     3.8107212520
 POWELL| Reached  26% of maximal function calls                     3.8107212520
 POWELL| Reached  28% of maximal function calls                     3.8107212520
 POWELL| Reached  30% of maximal function calls                     3.8107212520
 POWELL| Reached  32% of maximal function calls                     3.8107212520
 POWELL| Reached  34% of maximal function calls                     3.8042055120
 POWELL| Reached  36% of maximal function calls                     3.8042055120
 POWELL| Reached  38% of maximal function calls                     3.8042055120
 POWELL| Reached  40% of maximal function calls                     3.8042055120
 POWELL| Reached  42% of maximal function calls                     3.8042055120
 POWELL| Reached  44% of maximal function calls                     3.8030251087
 POWELL| Reached  46% of maximal function calls                     3.8030251087
 POWELL| Reached  48% of maximal function calls                     3.8030251087
 POWELL| Reached  50% of maximal function calls                     3.8030251087
 POWELL| Reached  52% of maximal function calls                     3.8030251087
 POWELL| Reached  54% of maximal function calls                     3.8030251087
 POWELL| Reached  56% of maximal function calls                     3.8030251087
 POWELL| Reached  57% of maximal function calls                     3.8030251087
 POWELL| Reached  60% of maximal function calls                     3.7854291919
 POWELL| Reached  62% of maximal function calls                     3.7854291919
 POWELL| Reached  64% of maximal function calls                     3.7854291919
 POWELL| Reached  66% of maximal function calls                     3.7854291919
 POWELL| Reached  68% of maximal function calls                     3.7854291919
 POWELL| Reached  70% of maximal function calls                     3.7844937676
 POWELL| Reached  72% of maximal function calls                     3.7839948390
 POWELL| Reached  74% of maximal function calls                     3.7838838501
 POWELL| Reached  76% of maximal function calls                     3.7838742497
 POWELL| Reached  78% of maximal function calls                     3.7838742497
 POWELL| Reached  80% of maximal function calls                     3.7838277463
 POWELL| Reached  82% of maximal function calls                     3.7838193925
 POWELL| Reached  84% of maximal function calls                     3.7838193925
 POWELL| Reached  86% of maximal function calls                     3.7838193925
 POWELL| Reached  88% of maximal function calls                     3.7838131138
 POWELL| Reached  90% of maximal function calls                     3.7837716299
 POWELL| Reached  92% of maximal function calls                     3.7837716299
 POWELL| Reached  94% of maximal function calls                     3.7837716299
 POWELL| Reached  96% of maximal function calls                     3.7837696710
[...]

 POWELL| Start optimization   1 of total 100               rhobeg =   0.00010000
 POWELL| Inital value of function                                   3.2757117730
 POWELL| Reached   6% of maximal function calls                     3.2757117730
 POWELL| Reached   8% of maximal function calls                     3.2757117730
 POWELL| Reached  10% of maximal function calls                     3.2757117730
 POWELL| Reached  12% of maximal function calls                     3.2757117730
 POWELL| Reached  14% of maximal function calls                     3.2757117730
 POWELL| Reached  16% of maximal function calls                     3.2757117730
 POWELL| Reached  18% of maximal function calls                     3.2757117730
 POWELL| Reached  20% of maximal function calls                     3.2757117730
 POWELL| Reached  22% of maximal function calls                     3.2757117730
 POWELL| Reached  24% of maximal function calls                     3.2757117730
 POWELL| Reached  26% of maximal function calls                     3.2757117730
 POWELL| Reached  28% of maximal function calls                     3.2757117730
 POWELL| Reached  30% of maximal function calls                     3.2757117730
 POWELL| Reached  32% of maximal function calls                     3.2757117730
 POWELL| Reached  34% of maximal function calls                     3.2757117730
 POWELL| Reached  36% of maximal function calls                     3.2757117730
 POWELL| Reached  38% of maximal function calls                     3.2757117730
 POWELL| Reached  40% of maximal function calls                     3.2757117730
 POWELL| Reached  42% of maximal function calls                     3.2757117730
 POWELL| Reached  44% of maximal function calls                     3.2757117730
 POWELL| Reached  46% of maximal function calls                     3.2757117730
 POWELL| Reached  48% of maximal function calls                     3.2757117730
 POWELL| Reached  50% of maximal function calls                     3.2757117730
 POWELL| Reached  52% of maximal function calls                     3.2757117730
 POWELL| Reached  54% of maximal function calls                     3.2757117730
 POWELL| Reached  56% of maximal function calls                     3.2757117730
 POWELL| Reached  57% of maximal function calls                     3.2757117730
 POWELL| Reached  60% of maximal function calls                     3.2757117730
 POWELL| Reached  62% of maximal function calls                     3.2757117730
 POWELL| Reached  64% of maximal function calls                     3.2757117730
 POWELL| Reached  66% of maximal function calls                     3.2757117730
 POWELL| Reached  68% of maximal function calls                     3.2731377255
 POWELL| Reached  70% of maximal function calls                     3.2728478001
 POWELL| Reached  72% of maximal function calls                     3.2728478001
 POWELL| Reached  74% of maximal function calls                     3.2728478001
 POWELL| Reached  76% of maximal function calls                     3.2728478001
 POWELL| Reached  78% of maximal function calls                     3.2728478001
 POWELL| Reached  80% of maximal function calls                     3.2728478001
 POWELL| Reached  82% of maximal function calls                     3.2728438422
 POWELL| Reached  84% of maximal function calls                     3.2728370715
 POWELL| Reached  86% of maximal function calls                     3.2728174203
 POWELL| Reached  88% of maximal function calls                     3.2728174203
 POWELL| Reached  90% of maximal function calls                     3.2728036873
 POWELL| Reached  92% of maximal function calls                     3.2728023404
 POWELL| Reached  94% of maximal function calls                     3.2728023404
 POWELL| Reached  96% of maximal function calls                     3.2728008169
 POWELL| Reached  98% of maximal function calls                     3.2728008169
 POWELL| Reached 100% of maximal function calls                     3.2728008169
 POWELL| Reached 100% of maximal function calls                     3.2728008169
 POWELL| Exceeding maximum number of steps
 POWELL| Reached 100% of maximal function calls                     3.2728008169
 POWELL| RMS average of variables                                   0.0000003075
 POWELL| Start optimization   2 of total 100               rhobeg =   0.00009800
 POWELL| Inital value of function                                   3.2728008169
 POWELL| Reached   6% of maximal function calls                     3.2728008169
 POWELL| Reached   8% of maximal function calls                     3.2728008169
 POWELL| Reached  10% of maximal function calls                     3.2728008169
 POWELL| Reached  12% of maximal function calls                     3.2728008169
 POWELL| Reached  14% of maximal function calls                     3.2728008169
 POWELL| Reached  16% of maximal function calls                     3.2728008169
 POWELL| Reached  18% of maximal function calls                     3.2728008169
 POWELL| Reached  20% of maximal function calls                     3.2728008169
 POWELL| Reached  22% of maximal function calls                     3.2728008169
 POWELL| Reached  24% of maximal function calls                     3.2728008169
 POWELL| Reached  26% of maximal function calls                     3.2728008169
 POWELL| Reached  28% of maximal function calls                     3.2728008169
 POWELL| Reached  30% of maximal function calls                     3.2728008169
 POWELL| Reached  32% of maximal function calls                     3.2728008169
 POWELL| Reached  34% of maximal function calls                     3.2728008169
 POWELL| Reached  36% of maximal function calls                     3.2728008169
 POWELL| Reached  38% of maximal function calls                     3.2728008169
 POWELL| Reached  40% of maximal function calls                     3.2728008169
 POWELL| Reached  42% of maximal function calls                     3.2728008169
 POWELL| Reached  44% of maximal function calls                     3.2728008169
 POWELL| Reached  46% of maximal function calls                     3.2728008169
 POWELL| Reached  48% of maximal function calls                     3.2728008169
 POWELL| Reached  50% of maximal function calls                     3.2728008169
 POWELL| Reached  52% of maximal function calls                     3.2728008169
 POWELL| Reached  54% of maximal function calls                     3.2728008169
 POWELL| Reached  56% of maximal function calls                     3.2728008169
 POWELL| Reached  57% of maximal function calls                     3.2728008169
 POWELL| Reached  60% of maximal function calls                     3.2728008169
 POWELL| Reached  62% of maximal function calls                     3.2721614376
 POWELL| Reached  64% of maximal function calls                     3.2721614376
 POWELL| Reached  66% of maximal function calls                     3.2721614376
 POWELL| Reached  68% of maximal function calls                     3.2721614376
 POWELL| Reached  70% of maximal function calls                     3.2721614376
 POWELL| Reached  72% of maximal function calls                     3.2721614376
 POWELL| Reached  74% of maximal function calls                     3.2721504777
 POWELL| Reached  76% of maximal function calls                     3.2721504777
 POWELL| Reached  78% of maximal function calls                     3.2721504777
 POWELL| Reached  80% of maximal function calls                     3.2721504777
 POWELL| Reached  82% of maximal function calls                     3.2720995019
 POWELL| Reached  84% of maximal function calls                     3.2720995019
 POWELL| Reached  86% of maximal function calls                     3.2720995019
 POWELL| Reached  88% of maximal function calls                     3.2720973861
 POWELL| Reached  90% of maximal function calls                     3.2720973861
 POWELL| Reached  92% of maximal function calls                     3.2720973861
 POWELL| Reached  94% of maximal function calls                     3.2720973861
 POWELL| Reached  96% of maximal function calls                     3.2720973861
 POWELL| Reached  98% of maximal function calls                     3.2720973861
 POWELL| Reached 100% of maximal function calls                     3.2720973861
 POWELL| Reached 100% of maximal function calls                     3.2720973861
 POWELL| Exceeding maximum number of steps
 POWELL| Reached 100% of maximal function calls                     3.2720973861
 POWELL| RMS average of variables                                   0.0000027183
 POWELL| Start optimization   3 of total 100               rhobeg =   0.00009604
 POWELL| Inital value of function                                   3.2720973861
 POWELL| Reached   6% of maximal function calls                     3.2720973861
 POWELL| Reached   8% of maximal function calls                     3.2720973861
 POWELL| Reached  10% of maximal function calls                     3.2720973861
 POWELL| Reached  12% of maximal function calls                     3.2720973861
 POWELL| Reached  14% of maximal function calls                     3.2720973861
 POWELL| Reached  16% of maximal function calls                     3.2720973861
 POWELL| Reached  18% of maximal function calls                     3.2720973861
 POWELL| Reached  20% of maximal function calls                     3.2720973861
 POWELL| Reached  22% of maximal function calls                     3.2720973861
 POWELL| Reached  24% of maximal function calls                     3.2720973861
 POWELL| Reached  26% of maximal function calls                     3.2720973861
 POWELL| Reached  28% of maximal function calls                     3.2720973861
 POWELL| Reached  30% of maximal function calls                     3.2720973861
 POWELL| Reached  32% of maximal function calls                     3.2720973861
 POWELL| Reached  34% of maximal function calls                     3.2720973861
 POWELL| Reached  36% of maximal function calls                     3.2720973861
 POWELL| Reached  38% of maximal function calls                     3.2720973861
 POWELL| Reached  40% of maximal function calls                     3.2720973861
 POWELL| Reached  42% of maximal function calls                     3.2720973861
 POWELL| Reached  44% of maximal function calls                     3.2720973861
 POWELL| Reached  46% of maximal function calls                     3.2720973861
 POWELL| Reached  48% of maximal function calls                     3.2720973861
 POWELL| Reached  50% of maximal function calls                     3.2720973861
 POWELL| Reached  52% of maximal function calls                     3.2720973861
 POWELL| Reached  54% of maximal function calls                     3.2720973861
 POWELL| Reached  56% of maximal function calls                     3.2720973861
 POWELL| Reached  57% of maximal function calls                     3.2720973861
 POWELL| Reached  60% of maximal function calls                     3.2720973861
 POWELL| Reached  62% of maximal function calls                     3.2720973861
 POWELL| Reached  64% of maximal function calls                     3.2720973861
 POWELL| Reached  66% of maximal function calls                     3.2720973861
 POWELL| Reached  68% of maximal function calls                     3.2720973861
 POWELL| Reached  70% of maximal function calls                     3.2720973861
 POWELL| Reached  72% of maximal function calls                     3.2720973861
 POWELL| Reached  74% of maximal function calls                     3.2720973861
 POWELL| Reached  76% of maximal function calls                     3.2720973861
 POWELL| Reached  78% of maximal function calls                     3.2720973861
 POWELL| Reached  80% of maximal function calls                     3.2720973861
 POWELL| Reached  82% of maximal function calls                     3.2720973861
 POWELL| Reached  84% of maximal function calls                     3.2720973861
 POWELL| Reached  86% of maximal function calls                     3.2720973861
 POWELL| Reached  88% of maximal function calls                     3.2720973861
 POWELL| Reached  90% of maximal function calls                     3.2720969957
 POWELL| Reached  92% of maximal function calls                     3.2720969957
 POWELL| Reached  94% of maximal function calls                     3.2720969560
 POWELL| Reached  96% of maximal function calls                     3.2720969560
 POWELL| Reached  98% of maximal function calls                     3.2720969560
 POWELL| Reached 100% of maximal function calls                     3.2720969560
 POWELL| Reached 100% of maximal function calls                     3.2720969126
 POWELL| Exceeding maximum number of steps
 POWELL| Reached 100% of maximal function calls                     3.2720969126
 POWELL| RMS average of variables                                   0.0000000005
 POWELL| Number of function evaluations                                       50
 POWELL| Final value of function                                    3.2720969126

 POWELL| Final errors of target values

 Reference configuration          1               Method number                1
    L    N    Occupation      Eigenvalue [eV]           dE [eV]          dCharge 
    0    1          2.00      -190.1299147382 SC  -0.003502[ 0]    -0.000001[ X]
    0    2          2.00       -14.4808854536 VA   0.000451[ 1]     0.005098[ 9]
    0    3          0.00        -0.1305693967 U1  -0.019288[18]     0.004866[ 0]
    0    4          0.00         4.9452363559 U2  -0.052973[ 0]     0.004694[ 0]
    1    1          6.00      -133.5669840428 SC  -0.003528[ 0]     0.000000[ X]
    1    2          3.00        -5.1891729009 VA   0.001021[18]     0.002202[ 1]
    1    3          0.00         1.4247521105 U1  -0.001197[ X]     0.000072[ X]
    1    4          0.00         7.3459143702 U2  -0.007498[ X]     0.000536[ 0]
    2    1         10.00       -40.6217918155 SC   0.005050[ 1]    -0.000326[ X]
    2    2          0.00         1.7982878912 U1   0.029116[46]    -0.009890[ 0]
    2    3          0.00         5.6831250034 U2   0.116468[ 0]    -0.010175[ 0]
    3    1          0.00         3.9618918300 U1   0.002675[ X]    -0.000009[ X]
    s-states N=    1                   Wavefunction at r=0:         0.696824[ 0]
    s-states N=    2                   Wavefunction at r=0:        -1.320362[ 0]
    s-states N=    3                   Wavefunction at r=0:        -0.459822[ 0]
    s-states N=    4                   Wavefunction at r=0:        -0.633702[ 0]

 Number of target values reached:                                       8 of  21



                             NORMAL TERMINATION OF     
                                                       
                           ****  ******  ****   ****   
                          **  ** ****** **  ** ******  
                          ******   **   **  ** **  **  
                          **  **   **    ****  **  **  


 -------------------------------------------------------------------------------
 -                                                                             -
 -                                DBCSR STATISTICS                             -
 -                                                                             -
 -------------------------------------------------------------------------------
 COUNTER                                    TOTAL       BLAS       SMM       ACC
 flops inhomo. stacks                           0       0.0%      0.0%      0.0%
 flops total                         0.000000E+00       0.0%      0.0%      0.0%
 flops max/rank                      0.000000E+00       0.0%      0.0%      0.0%
 matmuls inhomo. stacks                         0       0.0%      0.0%      0.0%
 matmuls total                                  0       0.0%      0.0%      0.0%
 number of processed stacks                     0       0.0%      0.0%      0.0%
 average stack size                                     0.0       0.0       0.0
 marketing flops                     0.000000E+00
 -------------------------------------------------------------------------------

 MEMORY| Estimated peak process memory [MiB]                                  47

 -------------------------------------------------------------------------------
 -                                                                             -
 -                           R E F E R E N C E S                               -
 -                                                                             -
 -------------------------------------------------------------------------------
 
 CP2K version 7.0 (Development Version), the CP2K developers group (2018).
 CP2K is freely available from https://www.cp2k.org/ .

 Schuett, Ole; Messmer, Peter; Hutter, Juerg; VandeVondele, Joost. 
 Electronic Structure Calculations on Graphics Processing Units, John Wiley & Sons, Ltd, 173-190 (2016). 
 GPU-Accelerated Sparse Matrix-Matrix Multiplication for Linear Scaling Density Functional Theory.
 http://dx.doi.org/10.1002/9781118670712.ch8


 Borstnik, U; VandeVondele, J; Weber, V; Hutter, J. 
 PARALLEL COMPUTING, 40 (5-6), 47-58 (2014). 
 Sparse matrix multiplication: The distributed block-compressed sparse
 row library.
 http://dx.doi.org/10.1016/j.parco.2014.03.012


 Hutter, J; Iannuzzi, M; Schiffmann, F; VandeVondele, J. 
 WILEY INTERDISCIPLINARY REVIEWS-COMPUTATIONAL MOLECULAR SCIENCE, 4 (1), 15-25 (2014). 
 CP2K: atomistic simulations of condensed matter systems.
 http://dx.doi.org/10.1002/wcms.1159


 Frigo, M; Johnson, SG. 
 PROCEEDINGS OF THE IEEE, 93 (2), 216-231 (2005). 
 The design and implementation of FFTW3.
 http://dx.doi.org/10.1109/JPROC.2004.840301


 Perdew, JP; Burke, K; Ernzerhof, M. 
 PHYSICAL REVIEW LETTERS, 77 (18), 3865-3868 (1996). 
 Generalized gradient approximation made simple.
 http://dx.doi.org/10.1103/PhysRevLett.77.3865


 -------------------------------------------------------------------------------
 -                                                                             -
 -                                T I M I N G                                  -
 -                                                                             -
 -------------------------------------------------------------------------------
 SUBROUTINE                       CALLS  ASD         SELF TIME        TOTAL TIME
                                MAXIMUM       AVERAGE  MAXIMUM  AVERAGE  MAXIMUM
 CP2K                                 1  1.0    0.003    0.003   29.975   29.975
 atom_code                            1  2.0    0.000    0.000   29.972   29.972
 atom_pseudo_opt                      1  3.0    0.272    0.272   29.972   29.972
 calculate_atom                     168  4.0    0.001    0.001   29.395   29.395
 calculate_atom_restricted          168  5.0   10.262   10.262   29.394   29.394
 calculate_atom_vxc_lda            5802  6.0   17.907   17.907   19.132   19.132
 xc_functional_eval                5802  7.0    0.015    0.015    1.219    1.219
 pbe_lda_eval                      5802  8.0    1.204    1.204    1.204    1.204
 -------------------------------------------------------------------------------

 The number of warnings for this run is : 0
 
 -------------------------------------------------------------------------------
  **** **** ******  **  PROGRAM ENDED AT                 2018-06-24 21:40:12.451
 ***** ** ***  *** **   PROGRAM RAN ON                                    tcpc01
 **    ****   ******    PROGRAM RAN BY                                    hutter
 ***** **    ** ** **   PROGRAM PROCESS ID                                  3509
  **** **  *******  **  PROGRAM STOPPED IN /data/hutter/pseudo/UZH2018/PBE/As/q2
                                           3
