
  **** **** ******  **  PROGRAM STARTED AT               2018-06-24 13:43:25.970
 ***** ** ***  *** **   PROGRAM STARTED ON                                tcpc01
 **    ****   ******    PROGRAM STARTED BY                                hutter
 ***** **    ** ** **   PROGRAM PROCESS ID                                 31002
  **** **  *******  **  PROGRAM STARTED IN /data/hutter/pseudo/UZH2018/PBE/Se/q2
                                           4

 CP2K| version string:                    CP2K version 7.0 (Development Version)
 CP2K| source code revision number:                                    svn:18485
 CP2K| cp2kflags: libint fftw3 libxc libderiv_max_am1=5 libint_max_am=6 spglib  
 CP2K| is freely available from                            https://www.cp2k.org/
 CP2K| Program compiled at                         Wed Jun 20 10:41:43 CEST 2018
 CP2K| Program compiled on                                                tcpc01
 CP2K| Program compiled for                                                local
 CP2K| Data directory path                        /data/hutter/CURRENT/cp2k/data
 CP2K| Input file name                                                    Se.inp

 GLOBAL| Method name                                                        ATOM
 GLOBAL| Project name                                                    PROJECT
 GLOBAL| Preferred FFT library                                             FFTW3
 GLOBAL| Preferred diagonalization lib.                                       SL
 GLOBAL| Run type                                                   ENERGY_FORCE
 GLOBAL| All-to-all communication in single precision                          F
 GLOBAL| FFTs using library dependent lengths                                  F
 GLOBAL| Global print level                                               MEDIUM
 GLOBAL| Total number of message passing processes                             1
 GLOBAL| Number of threads for this process                                    1
 GLOBAL| This output is from process                                           0
 GLOBAL| CPU model name :  Intel(R) Xeon(R) CPU           X5570  @ 2.93GHz

 MEMORY| system memory details [Kb]
 MEMORY|                        rank 0           min           max       average
 MEMORY| MemTotal             37009584      37009584      37009584      37009584
 MEMORY| MemFree              32300672      32300672      32300672      32300672
 MEMORY| Buffers                285948        285948        285948        285948
 MEMORY| Cached                2037640       2037640       2037640       2037640
 MEMORY| Slab                   271408        271408        271408        271408
 MEMORY| SReclaimable           203380        203380        203380        203380
 MEMORY| MemLikelyFree        34827640      34827640      34827640      34827640


 *** Fundamental physical constants (SI units) ***

 *** Literature: B. J. Mohr and B. N. Taylor,
 ***             CODATA recommended values of the fundamental physical
 ***             constants: 2006, Web Version 5.1
 ***             http://physics.nist.gov/constants

 Speed of light in vacuum [m/s]                             2.99792458000000E+08
 Magnetic constant or permeability of vacuum [N/A**2]       1.25663706143592E-06
 Electric constant or permittivity of vacuum [F/m]          8.85418781762039E-12
 Planck constant (h) [J*s]                                  6.62606896000000E-34
 Planck constant (h-bar) [J*s]                              1.05457162825177E-34
 Elementary charge [C]                                      1.60217648700000E-19
 Electron mass [kg]                                         9.10938215000000E-31
 Electron g factor [ ]                                     -2.00231930436220E+00
 Proton mass [kg]                                           1.67262163700000E-27
 Fine-structure constant                                    7.29735253760000E-03
 Rydberg constant [1/m]                                     1.09737315685270E+07
 Avogadro constant [1/mol]                                  6.02214179000000E+23
 Boltzmann constant [J/K]                                   1.38065040000000E-23
 Atomic mass unit [kg]                                      1.66053878200000E-27
 Bohr radius [m]                                            5.29177208590000E-11

 *** Conversion factors ***

 [u] -> [a.u.]                                              1.82288848426455E+03
 [Angstrom] -> [Bohr] = [a.u.]                              1.88972613288564E+00
 [a.u.] = [Bohr] -> [Angstrom]                              5.29177208590000E-01
 [a.u.] -> [s]                                              2.41888432650478E-17
 [a.u.] -> [fs]                                             2.41888432650478E-02
 [a.u.] -> [J]                                              4.35974393937059E-18
 [a.u.] -> [N]                                              8.23872205491840E-08
 [a.u.] -> [K]                                              3.15774647902944E+05
 [a.u.] -> [kJ/mol]                                         2.62549961709828E+03
 [a.u.] -> [kcal/mol]                                       6.27509468713739E+02
 [a.u.] -> [Pa]                                             2.94210107994716E+13
 [a.u.] -> [bar]                                            2.94210107994716E+08
 [a.u.] -> [atm]                                            2.90362800883016E+08
 [a.u.] -> [eV]                                             2.72113838565563E+01
 [a.u.] -> [Hz]                                             6.57968392072181E+15
 [a.u.] -> [1/cm] (wave numbers)                            2.19474631370540E+05
 [a.u./Bohr**2] -> [1/cm]                                   5.14048714338585E+03
 
 DBCSR| Multiplication driver                                               BLAS
 DBCSR| Multrec recursion limit                                              512
 DBCSR| Multiplication stack size                                           1000
 DBCSR| Maximum elements for images                                    UNLIMITED
 DBCSR| Multiplicative factor virtual images                                   1
 DBCSR| Multiplication size stacks                                             3



                           ****  ******  ****   ****   
                          **  ** ****** **  ** ******  
                          ******   **   **  ** **  **  
                          **  **   **    ****  **  **  
                                                       
                             University of Zurich      
                                 2009 - 2015           
                                                       
                                 Version 0.0           
                                                                   


 Atomic Energy Calculation             Selenium [Se]         Atomic number:   34


 *******************************************************************************
 ************************** Calculate Reference States *************************
 *******************************************************************************

 METHOD    | Restricted Kohn-Sham Calculation
 METHOD    | Relativistic Calculation using Douglas-Kroll 3rd order
 FUNCTIONAL| ROUTINE=NEW
 FUNCTIONAL| PBE:
 FUNCTIONAL| J.P.Perdew, K.Burke, M.Ernzerhof, Phys. Rev. Letter, vol. 77, n 18,
 FUNCTIONAL|  pp. 3865-3868, (1996){spin unpolarized}                           

 Electronic structure
    Total number of core electrons                                          0.00
    Total number of valence electrons                                      34.00
    Total number of electrons                                              34.00
    Multiplicity                                                   not specified
    S      2.00  2.00  2.00  2.00
    P      6.00  6.00  4.00
    D     10.00


 *******************************************************************************
                  Iteration          Convergence                     Energy [au]
 *******************************************************************************
                          1         32.0711                   -2317.265857734474
                          2         13.9185                   -2191.452354818348
                          3         17.5026                   -2376.943620774202
                          4         7.07773                   -2416.890219456164
                          5         1.88188                   -2428.702994526822
                          6        0.767097E-01               -2429.520352680021
                          7        0.238544E-01               -2429.521482928605
                          8        0.863766E-02               -2429.521518644361
                          9        0.104400E-02               -2429.521647191682
                         10        0.333992E-04               -2429.521647377350
                         11        0.216542E-05               -2429.521647379302
                         12        0.252885E-06               -2429.521647379301
                         13        0.587575E-07               -2429.521647379318

 Energy components [Hartree]           Total Energy ::        -2429.521647379318
                                        Band Energy ::        -1418.555709746004
                                     Kinetic Energy ::         2598.827753571949
                                   Potential Energy ::        -5028.349400951267
                                      Virial (-V/T) ::            1.934852894364
                                        Core Energy ::        -3378.808032370163
                                          XC Energy ::          -88.220096845361
                                     Coulomb Energy ::         1037.506481836206
                                        Confinement ::            0.000000024533

 Orbital energies  State     L     Occupation   Energy[a.u.]          Energy[eV]

                       1     0          2.000    -459.021063       -12490.598352
                       2     0          2.000     -59.002030        -1605.526891
                       3     0          2.000      -7.839016         -213.310473
                       4     0          2.000      -0.634835          -17.274733
                       5     0          0.000      -0.007114           -0.193583
                       6     0          0.000       0.164097            4.465308

                       1     1          6.000     -51.897854        -1412.212414
                       2     1          6.000      -5.617250         -152.853150
                       3     1          4.000      -0.239188           -6.508644
                       4     1          0.000       0.050480            1.373627
                       5     1          0.000       0.256834            6.988814

                       1     2         10.000      -1.951445          -53.101508
                       2     2          0.000       0.071613            1.948685
                       3     2          0.000       0.211421            5.753052

                       1     3          0.000       0.156495            4.258459


 Total Electron Density at R=0:                                     69758.315961

 *******************************************************************************
 ********************* Optimize Pseudopotential Parameters *********************
 *******************************************************************************

 POWELL| Start optimization procedure

 POWELL| Total number of parameters in optimization                           13

 POWELL| Initial errors of target values

 Reference configuration          1               Method number                1
    L    N    Occupation      Eigenvalue [eV]           dE [eV]          dCharge 
    0    1          2.00      -213.0737335650 SC   0.236739[ 8]    -0.000001[ X]
    0    2          2.00       -17.2448709320 VA   0.029862[31]     0.005958[ 0]
    0    3          0.00        -0.2251210118 U1  -0.031538[ 0]     0.007705[ 0]
    0    4          0.00         4.3964610921 U2  -0.068847[ 0]     0.006353[ 0]
    1    1          6.00      -152.3654460785 SC   0.487704[34]    -0.000000[ X]
    1    2          4.00        -6.5013195346 VA   0.007324[ 2]     0.002001[ 0]
    1    3          0.00         1.3723492064 U1  -0.001278[ X]     0.000098[ X]
    1    4          0.00         6.9819820537 U2  -0.006832[ X]     0.000605[ 0]
    2    1         10.00       -53.5272637155 SC  -0.425756[26]    -0.000272[ X]
    2    2          0.00         1.9944400163 U1   0.045755[ 0]    -0.008989[ 0]
    2    3          0.00         5.9482150185 U2   0.195163[ 0]    -0.017317[ 0]
    3    1          0.00         4.2601911085 U1   0.001732[ X]    -0.000009[ X]

 Number of target values reached:                                       8 of  21

 POWELL| Start optimization   1 of total  25               rhobeg =   0.08000000
 POWELL| Inital value of function                                3099.4428935464
 POWELL| Reached   6% of maximal function calls                  3099.4428935464
 POWELL| Reached   8% of maximal function calls                  3099.4428935464
 POWELL| Reached  10% of maximal function calls                  3099.4428935464
 POWELL| Reached  12% of maximal function calls                  3099.4428935464
 POWELL| Reached  14% of maximal function calls                  3099.4428935464
 POWELL| Reached  16% of maximal function calls                  3099.4428935464
 POWELL| Reached  18% of maximal function calls                  3099.4428935464
 POWELL| Reached  20% of maximal function calls                  3099.4428935464
 POWELL| Reached  22% of maximal function calls                  3099.4428935464
 POWELL| Reached  24% of maximal function calls                  3099.4428935464
 POWELL| Reached  26% of maximal function calls                  3099.4428935464
 POWELL| Reached  28% of maximal function calls                  3099.4428935464
 POWELL| Reached  30% of maximal function calls                   337.1138575222
 POWELL| Reached  32% of maximal function calls                   337.1138575222
 POWELL| Reached  34% of maximal function calls                   337.1138575222
 POWELL| Reached  36% of maximal function calls                   337.1138575222
 POWELL| Reached  38% of maximal function calls                   337.1138575222
 POWELL| Reached  40% of maximal function calls                   337.1138575222
 POWELL| Reached  42% of maximal function calls                   337.1138575222
 POWELL| Reached  44% of maximal function calls                   337.1138575222
 POWELL| Reached  46% of maximal function calls                   337.1138575222
 POWELL| Reached  48% of maximal function calls                   337.1138575222
 POWELL| Reached  50% of maximal function calls                   337.1138575222
 POWELL| Reached  52% of maximal function calls                   337.1138575222
 POWELL| Reached  54% of maximal function calls                   337.1138575222
 POWELL| Reached  56% of maximal function calls                   337.1138575222
 POWELL| Reached  57% of maximal function calls                   337.1138575222
 POWELL| Reached  60% of maximal function calls                   337.1138575222
 POWELL| Reached  62% of maximal function calls                   320.5844264791
 POWELL| Reached  64% of maximal function calls                   320.5844264791
 POWELL| Reached  66% of maximal function calls                   320.5844264791
 POWELL| Reached  68% of maximal function calls                   320.5844264791
 POWELL| Reached  70% of maximal function calls                   320.5844264791
 POWELL| Reached  72% of maximal function calls                   320.5844264791
 POWELL| Reached  74% of maximal function calls                   320.5844264791
 POWELL| Reached  76% of maximal function calls                   320.5844264791
 POWELL| Reached  78% of maximal function calls                   320.5844264791
 POWELL| Reached  80% of maximal function calls                   320.5844264791
 POWELL| Reached  82% of maximal function calls                   320.5844264791
 POWELL| Reached  84% of maximal function calls                   320.5844264791
 POWELL| Reached  86% of maximal function calls                   320.5844264791
 POWELL| Reached  88% of maximal function calls                   320.5844264791
 POWELL| Reached  90% of maximal function calls                   320.5844264791
 POWELL| Reached  92% of maximal function calls                   320.5844264791
 POWELL| Reached  94% of maximal function calls                   320.5844264791
 POWELL| Reached  96% of maximal function calls                   320.5844264791
 POWELL| Reached  98% of maximal function calls                   320.5844264791
 POWELL| Reached 100% of maximal function calls                   320.5844264791
 POWELL| Reached 100% of maximal function calls                   320.5844264791
 POWELL| Exceeding maximum number of steps
 POWELL| Reached 100% of maximal function calls                   320.5844264791
 POWELL| RMS average of variables                                   0.0222985692
 POWELL| Start optimization   2 of total  25               rhobeg =   0.07600000
 POWELL| Inital value of function                                 320.5844264791
 POWELL| Reached   6% of maximal function calls                   320.5844264791
 POWELL| Reached   8% of maximal function calls                   320.5844264791
 POWELL| Reached  10% of maximal function calls                   320.5844264791
 POWELL| Reached  12% of maximal function calls                   320.5844264791
 POWELL| Reached  14% of maximal function calls                   320.5844264791
 POWELL| Reached  16% of maximal function calls                   320.5844264791
 POWELL| Reached  18% of maximal function calls                   320.5844264791
 POWELL| Reached  20% of maximal function calls                   320.5844264791
 POWELL| Reached  22% of maximal function calls                   320.5844264791
 POWELL| Reached  24% of maximal function calls                   320.5844264791
 POWELL| Reached  26% of maximal function calls                   320.5844264791
 POWELL| Reached  28% of maximal function calls                   320.5844264791
 POWELL| Reached  30% of maximal function calls                   320.5844264791
 POWELL| Reached  32% of maximal function calls                   320.5844264791
 POWELL| Reached  34% of maximal function calls                   320.5844264791
 POWELL| Reached  36% of maximal function calls                   320.5844264791
 POWELL| Reached  38% of maximal function calls                   320.5844264791
 POWELL| Reached  40% of maximal function calls                   320.5844264791
 POWELL| Reached  42% of maximal function calls                   320.5844264791
 POWELL| Reached  44% of maximal function calls                   320.5844264791
 POWELL| Reached  46% of maximal function calls                   320.5844264791
 POWELL| Reached  48% of maximal function calls                   320.5844264791
 POWELL| Reached  50% of maximal function calls                   320.5844264791
 POWELL| Reached  52% of maximal function calls                   320.5844264791
 POWELL| Reached  54% of maximal function calls                   320.5844264791
 POWELL| Reached  56% of maximal function calls                   320.5844264791
 POWELL| Reached  57% of maximal function calls                   320.5844264791
 POWELL| Reached  60% of maximal function calls                   320.5844264791
 POWELL| Reached  62% of maximal function calls                   320.5844264791
 POWELL| Reached  64% of maximal function calls                   318.2937562418
 POWELL| Reached  66% of maximal function calls                   318.2937562418
 POWELL| Reached  68% of maximal function calls                   318.2937562418
 POWELL| Reached  70% of maximal function calls                   318.2937562418
 POWELL| Reached  72% of maximal function calls                   318.2937562418
 POWELL| Reached  74% of maximal function calls                   318.2937562418
 POWELL| Reached  76% of maximal function calls                   318.2937562418
 POWELL| Reached  78% of maximal function calls                   318.2937562418
 POWELL| Reached  80% of maximal function calls                   318.2937562418
 POWELL| Reached  82% of maximal function calls                   318.2937562418
 POWELL| Reached  84% of maximal function calls                   318.2937562418
 POWELL| Reached  86% of maximal function calls                   318.2937562418
 POWELL| Reached  88% of maximal function calls                   318.2937562418
 POWELL| Reached  90% of maximal function calls                   318.2937562418
 POWELL| Reached  92% of maximal function calls                   318.2937562418
 POWELL| Reached  94% of maximal function calls                   318.2937562418
 POWELL| Reached  96% of maximal function calls                   318.2937562418
 POWELL| Reached  98% of maximal function calls                   318.2937562418
 POWELL| Reached 100% of maximal function calls                   318.2937562418
 POWELL| Reached 100% of maximal function calls                   318.2937562418
 POWELL| Exceeding maximum number of steps
 POWELL| Reached 100% of maximal function calls                   318.2937562418
 POWELL| RMS average of variables                                   0.0021078607
 POWELL| Start optimization   3 of total  25               rhobeg =   0.07220000
 POWELL| Inital value of function                                 318.2937562418
 POWELL| Reached   6% of maximal function calls                   318.2937562418
 POWELL| Reached   8% of maximal function calls                   318.2937562418
 POWELL| Reached  10% of maximal function calls                   318.2937562418
 POWELL| Reached  12% of maximal function calls                   318.2937562418
 POWELL| Reached  14% of maximal function calls                   318.2937562418
 POWELL| Reached  16% of maximal function calls                   318.2937562418
 POWELL| Reached  18% of maximal function calls                   318.2937562418
 POWELL| Reached  20% of maximal function calls                   318.2937562418
 POWELL| Reached  22% of maximal function calls                   318.2937562418
 POWELL| Reached  24% of maximal function calls                   318.2937562418
 POWELL| Reached  26% of maximal function calls                   318.2937562418
 POWELL| Reached  28% of maximal function calls                   318.2937562418
 POWELL| Reached  30% of maximal function calls                   318.2937562418
 POWELL| Reached  32% of maximal function calls                   318.2937562418
 POWELL| Reached  34% of maximal function calls                   318.2937562418
 POWELL| Reached  36% of maximal function calls                   318.2937562418
 POWELL| Reached  38% of maximal function calls                   318.2937562418
 POWELL| Reached  40% of maximal function calls                   318.2937562418
 POWELL| Reached  42% of maximal function calls                   318.2937562418
 POWELL| Reached  44% of maximal function calls                   318.2937562418
 POWELL| Reached  46% of maximal function calls                   318.2937562418
 POWELL| Reached  48% of maximal function calls                   318.2937562418
 POWELL| Reached  50% of maximal function calls                   318.2937562418
 POWELL| Reached  52% of maximal function calls                   318.2937562418
 POWELL| Reached  54% of maximal function calls                   318.2937562418
 POWELL| Reached  56% of maximal function calls                   318.2937562418
 POWELL| Reached  57% of maximal function calls                   318.2937562418
 POWELL| Reached  60% of maximal function calls                   318.2937562418
 POWELL| Reached  62% of maximal function calls                   318.2937562418
 POWELL| Reached  64% of maximal function calls                   318.2937562418
 POWELL| Reached  66% of maximal function calls                   318.2937562418
 POWELL| Reached  68% of maximal function calls                   318.2937562418
 POWELL| Reached  70% of maximal function calls                   318.2937562418
 POWELL| Reached  72% of maximal function calls                   262.6864646857
 POWELL| Reached  74% of maximal function calls                   262.6864646857
 POWELL| Reached  76% of maximal function calls                   262.6864646857
 POWELL| Reached  78% of maximal function calls                   262.6864646857
 POWELL| Reached  80% of maximal function calls                   262.6864646857
 POWELL| Reached  82% of maximal function calls                   262.6864646857
 POWELL| Reached  84% of maximal function calls                   262.6864646857
 POWELL| Reached  86% of maximal function calls                   262.6864646857
 POWELL| Reached  88% of maximal function calls                   262.6864646857
 POWELL| Reached  90% of maximal function calls                   262.6864646857
 POWELL| Reached  92% of maximal function calls                   262.6864646857
 POWELL| Reached  94% of maximal function calls                   262.6864646857
 POWELL| Reached  96% of maximal function calls                   262.6864646857
 POWELL| Reached  98% of maximal function calls                   262.6864646857
 POWELL| Reached 100% of maximal function calls                   262.6864646857
 POWELL| Reached 100% of maximal function calls                   262.6864646857
 POWELL| Exceeding maximum number of steps
 POWELL| Reached 100% of maximal function calls                   262.6864646857
 POWELL| RMS average of variables                                   0.0020024677
 POWELL| Start optimization   4 of total  25               rhobeg =   0.06859000
 POWELL| Inital value of function                                 262.6864646857
 POWELL| Reached   6% of maximal function calls                   262.6864646857
 POWELL| Reached   8% of maximal function calls                   262.6864646857
 POWELL| Reached  10% of maximal function calls                   262.6864646857
 POWELL| Reached  12% of maximal function calls                   262.6864646857
 POWELL| Reached  14% of maximal function calls                   262.6864646857
 POWELL| Reached  16% of maximal function calls                   262.6864646857
 POWELL| Reached  18% of maximal function calls                   262.6864646857
 POWELL| Reached  20% of maximal function calls                   262.6864646857
 POWELL| Reached  22% of maximal function calls                   262.6864646857
 POWELL| Reached  24% of maximal function calls                   262.6864646857
 POWELL| Reached  26% of maximal function calls                   262.6864646857
 POWELL| Reached  28% of maximal function calls                   262.6864646857
 POWELL| Reached  30% of maximal function calls                   262.6864646857
 POWELL| Reached  32% of maximal function calls                   262.6864646857
 POWELL| Reached  34% of maximal function calls                   262.6864646857
 POWELL| Reached  36% of maximal function calls                   262.6864646857
 POWELL| Reached  38% of maximal function calls                   262.6864646857
 POWELL| Reached  40% of maximal function calls                   262.6864646857
 POWELL| Reached  42% of maximal function calls                   262.6864646857
 POWELL| Reached  44% of maximal function calls                   262.6864646857
 POWELL| Reached  46% of maximal function calls                   262.6864646857
 POWELL| Reached  48% of maximal function calls                   262.6864646857
 POWELL| Reached  50% of maximal function calls                   262.6864646857
 POWELL| Reached  52% of maximal function calls                   262.6864646857
 POWELL| Reached  54% of maximal function calls                   262.6864646857
 POWELL| Reached  56% of maximal function calls                   262.6864646857
 POWELL| Reached  57% of maximal function calls                   262.6864646857
 POWELL| Reached  60% of maximal function calls                   262.6864646857
 POWELL| Reached  62% of maximal function calls                   262.6864646857
 POWELL| Reached  64% of maximal function calls                   262.6864646857
 POWELL| Reached  66% of maximal function calls                   262.6864646857
 POWELL| Reached  68% of maximal function calls                   262.6864646857
 POWELL| Reached  70% of maximal function calls                   262.6864646857
 POWELL| Reached  72% of maximal function calls                   262.6864646857
 POWELL| Reached  74% of maximal function calls                   262.6864646857
 POWELL| Reached  76% of maximal function calls                   262.6864646857
 POWELL| Reached  78% of maximal function calls                   262.6864646857
 POWELL| Reached  80% of maximal function calls                   262.6864646857
 POWELL| Reached  82% of maximal function calls                   262.6864646857
 POWELL| Reached  84% of maximal function calls                   262.6864646857
 POWELL| Reached  86% of maximal function calls                   262.6864646857
 POWELL| Reached  88% of maximal function calls                   262.6864646857
 POWELL| Reached  90% of maximal function calls                   262.6864646857
 POWELL| Reached  92% of maximal function calls                   262.6864646857
 POWELL| Reached  94% of maximal function calls                   262.6864646857
 POWELL| Reached  96% of maximal function calls                   262.6864646857
 POWELL| Reached  98% of maximal function calls                   262.6864646857
 POWELL| Reached 100% of maximal function calls                   262.6864646857
 POWELL| Reached 100% of maximal function calls                   262.6864646857
 POWELL| Exceeding maximum number of steps
 POWELL| Reached 100% of maximal function calls                   262.6864646857
 POWELL| RMS average of variables                                   0.0000000000
 POWELL| Number of function evaluations                                       50
 POWELL| Final value of function                                  262.6864646857

 POWELL| Final errors of target values

 Reference configuration          1               Method number                1
    L    N    Occupation      Eigenvalue [eV]           dE [eV]          dCharge 
    0    1          2.00      -213.4226117526 SC  -0.112139[20]    -0.000001[ X]
    0    2          2.00       -17.2692156289 VA   0.005518[11]     0.006916[ 0]
    0    3          0.00        -0.2252940607 U1  -0.031711[ 1]     0.008070[ 0]
    0    4          0.00         4.3944271808 U2  -0.070881[ 0]     0.006538[ 0]
    1    1          6.00      -152.7828402635 SC   0.070310[ 8]     0.000000[ X]
    1    2          4.00        -6.5062812465 VA   0.002362[ 2]     0.003068[ 0]
    1    3          0.00         1.3724182319 U1  -0.001209[ X]     0.000039[ X]
    1    4          0.00         6.9797173835 U2  -0.009097[ X]     0.000758[ 0]
    2    1         10.00       -52.9160321034 SC   0.185476[56]    -0.000334[ X]
    2    2          0.00         1.9997424179 U1   0.051058[ 2]    -0.009485[ 0]
    2    3          0.00         5.9621664850 U2   0.209115[ 0]    -0.017952[ 0]
    3    1          0.00         4.2619954048 U1   0.003536[ 0]    -0.000011[ X]
    s-states N=    1                   Wavefunction at r=0:        -0.828205[ 0]
    s-states N=    2                   Wavefunction at r=0:        -1.750356[ 0]
    s-states N=    3                   Wavefunction at r=0:        -0.565597[ 0]
    s-states N=    4                   Wavefunction at r=0:         0.732158[ 0]

 Number of target values reached:                                       7 of  21



                             NORMAL TERMINATION OF     
                                                       
                           ****  ******  ****   ****   
                          **  ** ****** **  ** ******  
                          ******   **   **  ** **  **  
                          **  **   **    ****  **  **  


 -------------------------------------------------------------------------------
 -                                                                             -
 -                                DBCSR STATISTICS                             -
 -                                                                             -
 -------------------------------------------------------------------------------
 COUNTER                                    TOTAL       BLAS       SMM       ACC
 flops inhomo. stacks                           0       0.0%      0.0%      0.0%
 flops total                         0.000000E+00       0.0%      0.0%      0.0%
 flops max/rank                      0.000000E+00       0.0%      0.0%      0.0%
 matmuls inhomo. stacks                         0       0.0%      0.0%      0.0%
 matmuls total                                  0       0.0%      0.0%      0.0%
 number of processed stacks                     0       0.0%      0.0%      0.0%
 average stack size                                     0.0       0.0       0.0
 marketing flops                     0.000000E+00
 -------------------------------------------------------------------------------

 MEMORY| Estimated peak process memory [MiB]                                  47

 -------------------------------------------------------------------------------
 -                                                                             -
 -                           R E F E R E N C E S                               -
 -                                                                             -
 -------------------------------------------------------------------------------
 
 CP2K version 7.0 (Development Version), the CP2K developers group (2018).
 CP2K is freely available from https://www.cp2k.org/ .

 Schuett, Ole; Messmer, Peter; Hutter, Juerg; VandeVondele, Joost. 
 Electronic Structure Calculations on Graphics Processing Units, John Wiley & Sons, Ltd, 173-190 (2016). 
 GPU-Accelerated Sparse Matrix-Matrix Multiplication for Linear Scaling Density Functional Theory.
 http://dx.doi.org/10.1002/9781118670712.ch8


 Borstnik, U; VandeVondele, J; Weber, V; Hutter, J. 
 PARALLEL COMPUTING, 40 (5-6), 47-58 (2014). 
 Sparse matrix multiplication: The distributed block-compressed sparse
 row library.
 http://dx.doi.org/10.1016/j.parco.2014.03.012


 Hutter, J; Iannuzzi, M; Schiffmann, F; VandeVondele, J. 
 WILEY INTERDISCIPLINARY REVIEWS-COMPUTATIONAL MOLECULAR SCIENCE, 4 (1), 15-25 (2014). 
 CP2K: atomistic simulations of condensed matter systems.
 http://dx.doi.org/10.1002/wcms.1159


 Frigo, M; Johnson, SG. 
 PROCEEDINGS OF THE IEEE, 93 (2), 216-231 (2005). 
 The design and implementation of FFTW3.
 http://dx.doi.org/10.1109/JPROC.2004.840301


 Perdew, JP; Burke, K; Ernzerhof, M. 
 PHYSICAL REVIEW LETTERS, 77 (18), 3865-3868 (1996). 
 Generalized gradient approximation made simple.
 http://dx.doi.org/10.1103/PhysRevLett.77.3865


 -------------------------------------------------------------------------------
 -                                                                             -
 -                                T I M I N G                                  -
 -                                                                             -
 -------------------------------------------------------------------------------
 SUBROUTINE                       CALLS  ASD         SELF TIME        TOTAL TIME
                                MAXIMUM       AVERAGE  MAXIMUM  AVERAGE  MAXIMUM
 CP2K                                 1  1.0    0.003    0.003  186.509  186.509
 atom_code                            1  2.0    0.000    0.000  186.506  186.506
 atom_pseudo_opt                      1  3.0    0.450    0.450  186.506  186.506
 calculate_atom                     298  4.0    0.001    0.001  185.740  185.740
 calculate_atom_restricted          298  5.0   64.951   64.951  185.739  185.739
 calculate_atom_vxc_lda           37306  6.0  113.024  113.024  120.788  120.788
 xc_functional_eval               37306  7.0    0.090    0.090    7.726    7.726
 pbe_lda_eval                     37306  8.0    7.636    7.636    7.636    7.636
 -------------------------------------------------------------------------------

 The number of warnings for this run is : 0
 
 -------------------------------------------------------------------------------
  **** **** ******  **  PROGRAM ENDED AT                 2018-06-24 13:46:32.521
 ***** ** ***  *** **   PROGRAM RAN ON                                    tcpc01
 **    ****   ******    PROGRAM RAN BY                                    hutter
 ***** **    ** ** **   PROGRAM PROCESS ID                                 31002
  **** **  *******  **  PROGRAM STOPPED IN /data/hutter/pseudo/UZH2018/PBE/Se/q2
                                           4

  **** **** ******  **  PROGRAM STARTED AT               2018-06-24 13:48:06.698
 ***** ** ***  *** **   PROGRAM STARTED ON                                tcpc01
 **    ****   ******    PROGRAM STARTED BY                                hutter
 ***** **    ** ** **   PROGRAM PROCESS ID                                 31166
  **** **  *******  **  PROGRAM STARTED IN /data/hutter/pseudo/UZH2018/PBE/Se/q2
                                           4

 CP2K| version string:                    CP2K version 7.0 (Development Version)
 CP2K| source code revision number:                                    svn:18485
 CP2K| cp2kflags: libint fftw3 libxc libderiv_max_am1=5 libint_max_am=6 spglib  
 CP2K| is freely available from                            https://www.cp2k.org/
 CP2K| Program compiled at                         Wed Jun 20 10:41:43 CEST 2018
 CP2K| Program compiled on                                                tcpc01
 CP2K| Program compiled for                                                local
 CP2K| Data directory path                        /data/hutter/CURRENT/cp2k/data
 CP2K| Input file name                                                    Se.inp

 GLOBAL| Method name                                                        ATOM
 GLOBAL| Project name                                                    PROJECT
 GLOBAL| Preferred FFT library                                             FFTW3
 GLOBAL| Preferred diagonalization lib.                                       SL
 GLOBAL| Run type                                                   ENERGY_FORCE
 GLOBAL| All-to-all communication in single precision                          F
 GLOBAL| FFTs using library dependent lengths                                  F
 GLOBAL| Global print level                                               MEDIUM
 GLOBAL| Total number of message passing processes                             1
 GLOBAL| Number of threads for this process                                    1
 GLOBAL| This output is from process                                           0
 GLOBAL| CPU model name :  Intel(R) Xeon(R) CPU           X5570  @ 2.93GHz

 MEMORY| system memory details [Kb]
 MEMORY|                        rank 0           min           max       average
 MEMORY| MemTotal             37009584      37009584      37009584      37009584
 MEMORY| MemFree              32242356      32242356      32242356      32242356
 MEMORY| Buffers                286156        286156        286156        286156
 MEMORY| Cached                2037564       2037564       2037564       2037564
 MEMORY| Slab                   271612        271612        271612        271612
 MEMORY| SReclaimable           203400        203400        203400        203400
 MEMORY| MemLikelyFree        34769476      34769476      34769476      34769476


 *** Fundamental physical constants (SI units) ***

 *** Literature: B. J. Mohr and B. N. Taylor,
 ***             CODATA recommended values of the fundamental physical
 ***             constants: 2006, Web Version 5.1
 ***             http://physics.nist.gov/constants

 Speed of light in vacuum [m/s]                             2.99792458000000E+08
 Magnetic constant or permeability of vacuum [N/A**2]       1.25663706143592E-06
 Electric constant or permittivity of vacuum [F/m]          8.85418781762039E-12
 Planck constant (h) [J*s]                                  6.62606896000000E-34
 Planck constant (h-bar) [J*s]                              1.05457162825177E-34
 Elementary charge [C]                                      1.60217648700000E-19
 Electron mass [kg]                                         9.10938215000000E-31
 Electron g factor [ ]                                     -2.00231930436220E+00
 Proton mass [kg]                                           1.67262163700000E-27
 Fine-structure constant                                    7.29735253760000E-03
 Rydberg constant [1/m]                                     1.09737315685270E+07
 Avogadro constant [1/mol]                                  6.02214179000000E+23
 Boltzmann constant [J/K]                                   1.38065040000000E-23
 Atomic mass unit [kg]                                      1.66053878200000E-27
 Bohr radius [m]                                            5.29177208590000E-11

 *** Conversion factors ***

 [u] -> [a.u.]                                              1.82288848426455E+03
 [Angstrom] -> [Bohr] = [a.u.]                              1.88972613288564E+00
 [a.u.] = [Bohr] -> [Angstrom]                              5.29177208590000E-01
 [a.u.] -> [s]                                              2.41888432650478E-17
 [a.u.] -> [fs]                                             2.41888432650478E-02
 [a.u.] -> [J]                                              4.35974393937059E-18
 [a.u.] -> [N]                                              8.23872205491840E-08
 [a.u.] -> [K]                                              3.15774647902944E+05
 [a.u.] -> [kJ/mol]                                         2.62549961709828E+03
 [a.u.] -> [kcal/mol]                                       6.27509468713739E+02
 [a.u.] -> [Pa]                                             2.94210107994716E+13
 [a.u.] -> [bar]                                            2.94210107994716E+08
 [a.u.] -> [atm]                                            2.90362800883016E+08
 [a.u.] -> [eV]                                             2.72113838565563E+01
 [a.u.] -> [Hz]                                             6.57968392072181E+15
 [a.u.] -> [1/cm] (wave numbers)                            2.19474631370540E+05
 [a.u./Bohr**2] -> [1/cm]                                   5.14048714338585E+03
 
 DBCSR| Multiplication driver                                               BLAS
 DBCSR| Multrec recursion limit                                              512
 DBCSR| Multiplication stack size                                           1000
 DBCSR| Maximum elements for images                                    UNLIMITED
 DBCSR| Multiplicative factor virtual images                                   1
 DBCSR| Multiplication size stacks                                             3



                           ****  ******  ****   ****   
                          **  ** ****** **  ** ******  
                          ******   **   **  ** **  **  
                          **  **   **    ****  **  **  
                                                       
                             University of Zurich      
                                 2009 - 2015           
                                                       
                                 Version 0.0           
                                                                   


 Atomic Energy Calculation             Selenium [Se]         Atomic number:   34


 *******************************************************************************
 ************************** Calculate Reference States *************************
 *******************************************************************************

 METHOD    | Restricted Kohn-Sham Calculation
 METHOD    | Relativistic Calculation using Douglas-Kroll 3rd order
 FUNCTIONAL| ROUTINE=NEW
 FUNCTIONAL| PBE:
 FUNCTIONAL| J.P.Perdew, K.Burke, M.Ernzerhof, Phys. Rev. Letter, vol. 77, n 18,
 FUNCTIONAL|  pp. 3865-3868, (1996){spin unpolarized}                           

 Electronic structure
    Total number of core electrons                                          0.00
    Total number of valence electrons                                      34.00
    Total number of electrons                                              34.00
    Multiplicity                                                   not specified
    S      2.00  2.00  2.00  2.00
    P      6.00  6.00  4.00
    D     10.00


 *******************************************************************************
                  Iteration          Convergence                     Energy [au]
 *******************************************************************************
                          1         32.0711                   -2317.265857734474
                          2         13.9185                   -2191.452354818348
                          3         17.5026                   -2376.943620774202
                          4         7.07773                   -2416.890219456164
                          5         1.88188                   -2428.702994526822
                          6        0.767097E-01               -2429.520352680021
                          7        0.238544E-01               -2429.521482928605
                          8        0.863766E-02               -2429.521518644361
                          9        0.104400E-02               -2429.521647191682
                         10        0.333992E-04               -2429.521647377350
                         11        0.216542E-05               -2429.521647379302
                         12        0.252885E-06               -2429.521647379301
                         13        0.587575E-07               -2429.521647379318

 Energy components [Hartree]           Total Energy ::        -2429.521647379318
                                        Band Energy ::        -1418.555709746004
                                     Kinetic Energy ::         2598.827753571949
                                   Potential Energy ::        -5028.349400951267
                                      Virial (-V/T) ::            1.934852894364
                                        Core Energy ::        -3378.808032370163
                                          XC Energy ::          -88.220096845361
                                     Coulomb Energy ::         1037.506481836206
                                        Confinement ::            0.000000024533

 Orbital energies  State     L     Occupation   Energy[a.u.]          Energy[eV]

                       1     0          2.000    -459.021063       -12490.598352
                       2     0          2.000     -59.002030        -1605.526891
                       3     0          2.000      -7.839016         -213.310473
                       4     0          2.000      -0.634835          -17.274733
                       5     0          0.000      -0.007114           -0.193583
                       6     0          0.000       0.164097            4.465308

                       1     1          6.000     -51.897854        -1412.212414
                       2     1          6.000      -5.617250         -152.853150
                       3     1          4.000      -0.239188           -6.508644
                       4     1          0.000       0.050480            1.373627
                       5     1          0.000       0.256834            6.988814

                       1     2         10.000      -1.951445          -53.101508
                       2     2          0.000       0.071613            1.948685
                       3     2          0.000       0.211421            5.753052

                       1     3          0.000       0.156495            4.258459


 Total Electron Density at R=0:                                     69758.315961

 *******************************************************************************
 ********************* Optimize Pseudopotential Parameters *********************
 *******************************************************************************

 POWELL| Start optimization procedure

 POWELL| Total number of parameters in optimization                           13

 POWELL| Initial errors of target values

 Reference configuration          1               Method number                1
    L    N    Occupation      Eigenvalue [eV]           dE [eV]          dCharge 
    0    1          2.00      -213.4226124826 SC  -0.112140[20]    -0.000001[ X]
    0    2          2.00       -17.2692166452 VA   0.005517[11]     0.006916[ 0]
    0    3          0.00        -0.2252940071 U1  -0.031711[ 1]     0.008070[ 0]
    0    4          0.00         4.3944279578 U2  -0.070880[ 0]     0.006538[ 0]
    1    1          6.00      -152.7828397978 SC   0.070311[ 8]     0.000000[ X]
    1    2          4.00        -6.5062819820 VA   0.002362[ 2]     0.003068[ 0]
    1    3          0.00         1.3724185967 U1  -0.001208[ X]     0.000039[ X]
    1    4          0.00         6.9797179091 U2  -0.009096[ X]     0.000758[ 0]
    2    1         10.00       -52.9160328552 SC   0.185475[56]    -0.000334[ X]
    2    2          0.00         1.9997426715 U1   0.051058[ 2]    -0.009485[ 0]
    2    3          0.00         5.9621669529 U2   0.209115[ 0]    -0.017952[ 0]
    3    1          0.00         4.2619962707 U1   0.003537[ 0]    -0.000011[ X]

 Number of target values reached:                                       7 of  21

 POWELL| Start optimization   1 of total  50               rhobeg =   0.00080000
 POWELL| Inital value of function                                 262.6712015821
 POWELL| Reached   6% of maximal function calls                   262.6712015821
 POWELL| Reached   8% of maximal function calls                   262.6712015821
 POWELL| Reached  10% of maximal function calls                   262.6712015821
 POWELL| Reached  12% of maximal function calls                   262.6712015821
 POWELL| Reached  14% of maximal function calls                   245.8457200541
 POWELL| Reached  16% of maximal function calls                   235.3356356803
 POWELL| Reached  18% of maximal function calls                   235.3356356803
 POWELL| Reached  20% of maximal function calls                   235.3356356803
 POWELL| Reached  22% of maximal function calls                   235.3356356803
 POWELL| Reached  24% of maximal function calls                   235.3356356803
 POWELL| Reached  26% of maximal function calls                   235.3356356803
 POWELL| Reached  28% of maximal function calls                   235.3356356803
 POWELL| Reached  30% of maximal function calls                   235.3356356803
 POWELL| Reached  32% of maximal function calls                   222.4152589033
 POWELL| Reached  34% of maximal function calls                   222.4152589033
 POWELL| Reached  36% of maximal function calls                   222.4152589033
 POWELL| Reached  38% of maximal function calls                   222.4152589033
 POWELL| Reached  40% of maximal function calls                   222.4152589033
 POWELL| Reached  42% of maximal function calls                   222.4152589033
 POWELL| Reached  44% of maximal function calls                   222.4152589033
 POWELL| Reached  46% of maximal function calls                   222.4152589033
 POWELL| Reached  48% of maximal function calls                   222.4152589033
 POWELL| Reached  50% of maximal function calls                   222.4152589033
 POWELL| Reached  52% of maximal function calls                   222.4152589033
 POWELL| Reached  54% of maximal function calls                   222.4152589033
 POWELL| Reached  56% of maximal function calls                   222.4152589033
 POWELL| Reached  57% of maximal function calls                   222.4152589033
 POWELL| Reached  60% of maximal function calls                   222.3622087400
 POWELL| Reached  62% of maximal function calls                   222.3622087400
 POWELL| Reached  64% of maximal function calls                   222.3483870146
 POWELL| Reached  66% of maximal function calls                   222.3483870146
 POWELL| Reached  68% of maximal function calls                   221.5528874267
 POWELL| Reached  70% of maximal function calls                   221.5238155185
 POWELL| Reached  72% of maximal function calls                   221.5203587476
 POWELL| Reached  74% of maximal function calls                   221.5203587476
 POWELL| Reached  76% of maximal function calls                   221.5199409847
 POWELL| Reached  78% of maximal function calls                   221.5199409847
 POWELL| Reached  80% of maximal function calls                   221.5199409847
 POWELL| Reached  82% of maximal function calls                   221.5165022983
 POWELL| Reached  84% of maximal function calls                   221.4993027613
 POWELL| Reached  86% of maximal function calls                   221.4993027613
 POWELL| Reached  88% of maximal function calls                   221.4993027613
 POWELL| Reached  90% of maximal function calls                   221.4993027613
 POWELL| Reached  92% of maximal function calls                   221.4993027613
 POWELL| Reached  94% of maximal function calls                   221.4988800326
 POWELL| Reached  96% of maximal function calls                   221.4988800326
 POWELL| Reached  98% of maximal function calls                   221.4961559207
 POWELL| Reached 100% of maximal function calls                   221.4961559207
 POWELL| Reached 100% of maximal function calls                   221.4961559207
 POWELL| Exceeding maximum number of steps
 POWELL| Reached 100% of maximal function calls                   221.4961559207
 POWELL| RMS average of variables                                   0.0002232079
 POWELL| Start optimization   2 of total  50               rhobeg =   0.00078400
 POWELL| Inital value of function                                 221.4961559207
 POWELL| Reached   6% of maximal function calls                   221.4961559207
 POWELL| Reached   8% of maximal function calls                   221.0828220611
 POWELL| Reached  10% of maximal function calls                   220.5006928956
 POWELL| Reached  12% of maximal function calls                   220.5006928956
 POWELL| Reached  14% of maximal function calls                   220.5006928956
 POWELL| Reached  16% of maximal function calls                   122.5954557180
 POWELL| Reached  18% of maximal function calls                   122.5954557180
 POWELL| Reached  20% of maximal function calls                   122.5954557180
 POWELL| Reached  22% of maximal function calls                   122.5954557180
 POWELL| Reached  24% of maximal function calls                   122.5954557180
 POWELL| Reached  26% of maximal function calls                   122.5954557180
 POWELL| Reached  28% of maximal function calls                   122.5954557180
 POWELL| Reached  30% of maximal function calls                   122.5954557180
 POWELL| Reached  32% of maximal function calls                   122.5954557180
 POWELL| Reached  34% of maximal function calls                   122.5954557180
 POWELL| Reached  36% of maximal function calls                   122.5954557180
 POWELL| Reached  38% of maximal function calls                   122.5954557180
 POWELL| Reached  40% of maximal function calls                   122.5954557180
 POWELL| Reached  42% of maximal function calls                   122.5954557180
 POWELL| Reached  44% of maximal function calls                   122.5954557180
 POWELL| Reached  46% of maximal function calls                   122.5954557180
 POWELL| Reached  48% of maximal function calls                   122.5954557180
 POWELL| Reached  50% of maximal function calls                   122.5954557180
 POWELL| Reached  52% of maximal function calls                   122.5954557180
 POWELL| Reached  54% of maximal function calls                   122.5954557180
 POWELL| Reached  56% of maximal function calls                   122.5954557180
 POWELL| Reached  57% of maximal function calls                   122.5954557180
 POWELL| Reached  60% of maximal function calls                   122.5954557180
 POWELL| Reached  62% of maximal function calls                   122.5954557180
 POWELL| Reached  64% of maximal function calls                   122.5954557180
 POWELL| Reached  66% of maximal function calls                   122.5954557180
 POWELL| Reached  68% of maximal function calls                   122.3383275703
 POWELL| Reached  70% of maximal function calls                   122.3383275703
 POWELL| Reached  72% of maximal function calls                   122.3383275703
 POWELL| Reached  74% of maximal function calls                   122.3359593933
 POWELL| Reached  76% of maximal function calls                   122.3359593933
 POWELL| Reached  78% of maximal function calls                   122.3359583333
 POWELL| Reached  80% of maximal function calls                   122.3356424630
 POWELL| Reached  82% of maximal function calls                   122.3309311428
 POWELL| Reached  84% of maximal function calls                   122.3309311428
 POWELL| Reached  86% of maximal function calls                   122.3289410995
 POWELL| Reached  88% of maximal function calls                   122.3289410995
 POWELL| Reached  90% of maximal function calls                   122.3287161030
 POWELL| Reached  92% of maximal function calls                   122.3287161030
 POWELL| Reached  94% of maximal function calls                   122.3287161030
 POWELL| Reached  96% of maximal function calls                   122.3287161030
 POWELL| Reached  98% of maximal function calls                   122.3287161030
 POWELL| Reached 100% of maximal function calls                   122.3287161030
 POWELL| Reached 100% of maximal function calls                   122.3287161030
 POWELL| Exceeding maximum number of steps
 POWELL| Reached 100% of maximal function calls                   122.3287161030
 POWELL| RMS average of variables                                   0.0002174511
 POWELL| Start optimization   3 of total  50               rhobeg =   0.00076832
 POWELL| Inital value of function                                 122.3287161030
 POWELL| Reached   6% of maximal function calls                   122.3287161030
 POWELL| Reached   8% of maximal function calls                   122.3287161030
 POWELL| Reached  10% of maximal function calls                   122.3287161030
 POWELL| Reached  12% of maximal function calls                   122.3287161030
 POWELL| Reached  14% of maximal function calls                   105.7543419784
 POWELL| Reached  16% of maximal function calls                   105.7543419784
 POWELL| Reached  18% of maximal function calls                   105.7543419784
 POWELL| Reached  20% of maximal function calls                   105.7543419784
 POWELL| Reached  22% of maximal function calls                   105.7543419784
 POWELL| Reached  24% of maximal function calls                   105.7543419784
 POWELL| Reached  26% of maximal function calls                   105.7543419784
 POWELL| Reached  28% of maximal function calls                   105.7543419784
 POWELL| Reached  30% of maximal function calls                   105.7543419784
 POWELL| Reached  32% of maximal function calls                   105.7543419784
 POWELL| Reached  34% of maximal function calls                   105.7543419784
 POWELL| Reached  36% of maximal function calls                   105.7543419784
 POWELL| Reached  38% of maximal function calls                   105.7543419784
 POWELL| Reached  40% of maximal function calls                   105.7543419784
 POWELL| Reached  42% of maximal function calls                   105.7543419784
 POWELL| Reached  44% of maximal function calls                   105.7543419784
 POWELL| Reached  46% of maximal function calls                   105.7543419784
 POWELL| Reached  48% of maximal function calls                   105.7543419784
 POWELL| Reached  50% of maximal function calls                   105.7543419784
 POWELL| Reached  52% of maximal function calls                   105.7543419784
 POWELL| Reached  54% of maximal function calls                   105.7543419784
 POWELL| Reached  56% of maximal function calls                   105.7543419784
 POWELL| Reached  57% of maximal function calls                   105.0352346158
 POWELL| Reached  60% of maximal function calls                   105.0352346158
 POWELL| Reached  62% of maximal function calls                   105.0352346158
 POWELL| Reached  64% of maximal function calls                   105.0141768549
 POWELL| Reached  66% of maximal function calls                   104.9554419009
 POWELL| Reached  68% of maximal function calls                   104.9554419009
 POWELL| Reached  70% of maximal function calls                   104.9496988854
 POWELL| Reached  72% of maximal function calls                   104.9415534447
 POWELL| Reached  74% of maximal function calls                   104.8919416990
 POWELL| Reached  76% of maximal function calls                   104.8919416990
 POWELL| Reached  78% of maximal function calls                   104.8919416990
 POWELL| Reached  80% of maximal function calls                   104.8918773386
 POWELL| Reached  82% of maximal function calls                   104.8918773386
 POWELL| Reached  84% of maximal function calls                   104.8918773386
 POWELL| Reached  86% of maximal function calls                   104.8915508059
 POWELL| Reached  88% of maximal function calls                   104.8914161503
 POWELL| Reached  90% of maximal function calls                   104.8891629827
 POWELL| Reached  92% of maximal function calls                   104.8880309475
 POWELL| Reached  94% of maximal function calls                   104.8880309475
 POWELL| Reached  96% of maximal function calls                   104.8880309475
 POWELL| Reached  98% of maximal function calls                   104.8876101657
 POWELL| Reached 100% of maximal function calls                   104.8876101657
 POWELL| Reached 100% of maximal function calls                   104.8876101657
 POWELL| Exceeding maximum number of steps
 POWELL| Reached 100% of maximal function calls                   104.8876101657
 POWELL| RMS average of variables                                   0.0002360270
 POWELL| Start optimization   4 of total  50               rhobeg =   0.00075295
 POWELL| Inital value of function                                 104.8876101657
 POWELL| Reached   6% of maximal function calls                   104.8876101657
 POWELL| Reached   8% of maximal function calls                   104.8876101657
 POWELL| Reached  10% of maximal function calls                   103.1256497138
 POWELL| Reached  12% of maximal function calls                   103.1256497138
 POWELL| Reached  14% of maximal function calls                   103.1256497138
 POWELL| Reached  16% of maximal function calls                   103.1256497138
 POWELL| Reached  18% of maximal function calls                   103.1256497138
 POWELL| Reached  20% of maximal function calls                   103.1256497138
 POWELL| Reached  22% of maximal function calls                   103.1256497138
 POWELL| Reached  24% of maximal function calls                   101.9021287235
 POWELL| Reached  26% of maximal function calls                   101.9021287235
 POWELL| Reached  28% of maximal function calls                   101.9021287235
 POWELL| Reached  30% of maximal function calls                   101.9021287235
 POWELL| Reached  32% of maximal function calls                   101.9021287235
 POWELL| Reached  34% of maximal function calls                   101.9021287235
 POWELL| Reached  36% of maximal function calls                   101.9021287235
 POWELL| Reached  38% of maximal function calls                   101.9021287235
 POWELL| Reached  40% of maximal function calls                   101.9021287235
 POWELL| Reached  42% of maximal function calls                   101.9021287235
 POWELL| Reached  44% of maximal function calls                   100.0089159624
 POWELL| Reached  46% of maximal function calls                   100.0089159624
 POWELL| Reached  48% of maximal function calls                   100.0089159624
 POWELL| Reached  50% of maximal function calls                   100.0089159624
 POWELL| Reached  52% of maximal function calls                   100.0089159624
 POWELL| Reached  54% of maximal function calls                   100.0089159624
 POWELL| Reached  56% of maximal function calls                   100.0089159624
 POWELL| Reached  57% of maximal function calls                    99.6436745041
 POWELL| Reached  60% of maximal function calls                    99.6436745041
 POWELL| Reached  62% of maximal function calls                    99.6436745041
 POWELL| Reached  64% of maximal function calls                    99.6201030799
 POWELL| Reached  66% of maximal function calls                    99.5786789284
 POWELL| Reached  68% of maximal function calls                    99.5786789284
 POWELL| Reached  70% of maximal function calls                    99.5718552506
 POWELL| Reached  72% of maximal function calls                    99.5644720355
 POWELL| Reached  74% of maximal function calls                    99.5369783263
 POWELL| Reached  76% of maximal function calls                    99.5365251818
 POWELL| Reached  78% of maximal function calls                    99.5359503564
 POWELL| Reached  80% of maximal function calls                    99.5359503564
 POWELL| Reached  82% of maximal function calls                    99.5359503564
 POWELL| Reached  84% of maximal function calls                    99.5359503564
 POWELL| Reached  86% of maximal function calls                    99.5359503564
 POWELL| Reached  88% of maximal function calls                    99.5339834014
 POWELL| Reached  90% of maximal function calls                    99.5323057467
 POWELL| Reached  92% of maximal function calls                    99.5323057467
 POWELL| Reached  94% of maximal function calls                    99.5323057467
 POWELL| Reached  96% of maximal function calls                    99.5323057467
 POWELL| Reached  98% of maximal function calls                    99.5323057467
 POWELL| Reached 100% of maximal function calls                    99.5322491406
 POWELL| Reached 100% of maximal function calls                    99.5320187674
 POWELL| Exceeding maximum number of steps
 POWELL| Reached 100% of maximal function calls                    99.5320187674
 POWELL| RMS average of variables                                   0.0002312919
 POWELL| Start optimization   5 of total  50               rhobeg =   0.00073789
 POWELL| Inital value of function                                  99.5320187674
 POWELL| Reached   6% of maximal function calls                    99.5320187674
 POWELL| Reached   8% of maximal function calls                    99.5320187674
 POWELL| Reached  10% of maximal function calls                    97.5179879720
 POWELL| Reached  12% of maximal function calls                    97.5179879720
 POWELL| Reached  14% of maximal function calls                    97.5179879720
 POWELL| Reached  16% of maximal function calls                    97.5179879720
 POWELL| Reached  18% of maximal function calls                    97.5179879720
 POWELL| Reached  20% of maximal function calls                    97.5179879720
 POWELL| Reached  22% of maximal function calls                    96.8082311284
 POWELL| Reached  24% of maximal function calls                    96.8082311284
 POWELL| Reached  26% of maximal function calls                    96.8082311284
 POWELL| Reached  28% of maximal function calls                    96.8082311284
 POWELL| Reached  30% of maximal function calls                    96.8082311284
 POWELL| Reached  32% of maximal function calls                    96.8082311284
 POWELL| Reached  34% of maximal function calls                    96.8082311284
 POWELL| Reached  36% of maximal function calls                    96.8082311284
 POWELL| Reached  38% of maximal function calls                    96.8082311284
 POWELL| Reached  40% of maximal function calls                    96.8082311284
 POWELL| Reached  42% of maximal function calls                    96.8082311284
 POWELL| Reached  44% of maximal function calls                    96.8082311284
 POWELL| Reached  46% of maximal function calls                    96.8082311284
 POWELL| Reached  48% of maximal function calls                    96.8082311284
 POWELL| Reached  50% of maximal function calls                    96.8082311284
 POWELL| Reached  52% of maximal function calls                    96.8082311284
 POWELL| Reached  54% of maximal function calls                    96.8082311284
 POWELL| Reached  56% of maximal function calls                    96.8082311284
 POWELL| Reached  57% of maximal function calls                    96.7245109005
 POWELL| Reached  60% of maximal function calls                    96.7245109005
 POWELL| Reached  62% of maximal function calls                    96.7245109005
 POWELL| Reached  64% of maximal function calls                    96.7083331752
 POWELL| Reached  66% of maximal function calls                    96.6922180022
 POWELL| Reached  68% of maximal function calls                    96.6922180022
 POWELL| Reached  70% of maximal function calls                    96.6860873366
 POWELL| Reached  72% of maximal function calls                    96.6812195219
 POWELL| Reached  74% of maximal function calls                    96.6296151419
 POWELL| Reached  76% of maximal function calls                    96.6296151419
 POWELL| Reached  78% of maximal function calls                    96.6294684894
 POWELL| Reached  80% of maximal function calls                    96.6293136171
 POWELL| Reached  82% of maximal function calls                    96.6291253331
 POWELL| Reached  84% of maximal function calls                    96.6291040525
 POWELL| Reached  86% of maximal function calls                    96.6289975543
 POWELL| Reached  88% of maximal function calls                    96.6289867984
 POWELL| Reached  90% of maximal function calls                    96.6289476447
 POWELL| Reached  92% of maximal function calls                    96.6289005782
 POWELL| Reached  94% of maximal function calls                    96.6289005782
 POWELL| Reached  96% of maximal function calls                    96.6288811630
 POWELL| Reached  98% of maximal function calls                    96.6288811630
 POWELL| Reached 100% of maximal function calls                    96.6288662625
 POWELL| Reached 100% of maximal function calls                    96.6288662625
 POWELL| Exceeding maximum number of steps
 POWELL| Reached 100% of maximal function calls                    96.6288662625
 POWELL| RMS average of variables                                   0.0002266762
 POWELL| Start optimization   6 of total  50               rhobeg =   0.00072314
 POWELL| Inital value of function                                  96.6288662625
 POWELL| Reached   6% of maximal function calls                    96.6288662625
 POWELL| Reached   8% of maximal function calls                    96.6288662625
 POWELL| Reached  10% of maximal function calls                    95.3346847874
 POWELL| Reached  12% of maximal function calls                    95.3346847874
 POWELL| Reached  14% of maximal function calls                    95.3346847874
 POWELL| Reached  16% of maximal function calls                    95.3346847874
 POWELL| Reached  18% of maximal function calls                    95.3346847874
 POWELL| Reached  20% of maximal function calls                    95.3346847874
 POWELL| Reached  22% of maximal function calls                    95.3346847874
 POWELL| Reached  24% of maximal function calls                    93.6688307134
 POWELL| Reached  26% of maximal function calls                    93.6688307134
 POWELL| Reached  28% of maximal function calls                    93.6688307134
 POWELL| Reached  30% of maximal function calls                    93.6688307134
 POWELL| Reached  32% of maximal function calls                    93.6688307134
 POWELL| Reached  34% of maximal function calls                    93.6688307134
 POWELL| Reached  36% of maximal function calls                    93.6688307134
 POWELL| Reached  38% of maximal function calls                    93.6688307134
 POWELL| Reached  40% of maximal function calls                    93.6688307134
 POWELL| Reached  42% of maximal function calls                    93.6688307134
 POWELL| Reached  44% of maximal function calls                    91.5993770641
 POWELL| Reached  46% of maximal function calls                    91.5993770641
 POWELL| Reached  48% of maximal function calls                    91.5993770641
 POWELL| Reached  50% of maximal function calls                    91.5993770641
 POWELL| Reached  52% of maximal function calls                    91.5993770641
 POWELL| Reached  54% of maximal function calls                    91.5993770641
 POWELL| Reached  56% of maximal function calls                    91.5993770641
 POWELL| Reached  57% of maximal function calls                    91.5993770641
 POWELL| Reached  60% of maximal function calls                    91.5993770641
 POWELL| Reached  62% of maximal function calls                    87.4786313019
 POWELL| Reached  64% of maximal function calls                    87.4786313019
 POWELL| Reached  66% of maximal function calls                    87.4786313019
 POWELL| Reached  68% of maximal function calls                    85.2158922924
 POWELL| Reached  70% of maximal function calls                    84.2340314915
 POWELL| Reached  72% of maximal function calls                    84.2340314915
 POWELL| Reached  74% of maximal function calls                    84.0958078092
 POWELL| Reached  76% of maximal function calls                    83.6774645061
 POWELL| Reached  78% of maximal function calls                    83.6774645061
 POWELL| Reached  80% of maximal function calls                    83.6460864748
 POWELL| Reached  82% of maximal function calls                    83.2083909508
 POWELL| Reached  84% of maximal function calls                    83.2083909508
 POWELL| Reached  86% of maximal function calls                    82.6543857447
 POWELL| Reached  88% of maximal function calls                    81.9670879370
 POWELL| Reached  90% of maximal function calls                    81.5625240596
 POWELL| Reached  92% of maximal function calls                    80.2192912970
 POWELL| Reached  94% of maximal function calls                    79.0239680254
 POWELL| Reached  96% of maximal function calls                    79.0239680254
 POWELL| Reached  98% of maximal function calls                    78.7939595626
 POWELL| Reached 100% of maximal function calls                    78.2702336521
 POWELL| Reached 100% of maximal function calls                    77.8213429057
 POWELL| Exceeding maximum number of steps
 POWELL| Reached 100% of maximal function calls                    77.8213429057
 POWELL| RMS average of variables                                   0.0003260605
 POWELL| Start optimization   7 of total  50               rhobeg =   0.00070867
 POWELL| Inital value of function                                  77.8213429057
 POWELL| Reached   6% of maximal function calls                    77.8213429057
 POWELL| Reached   8% of maximal function calls                    77.8213429057
 POWELL| Reached  10% of maximal function calls                    75.0564056446
 POWELL| Reached  12% of maximal function calls                    75.0564056446
 POWELL| Reached  14% of maximal function calls                    75.0564056446
 POWELL| Reached  16% of maximal function calls                    75.0564056446
 POWELL| Reached  18% of maximal function calls                    75.0564056446
 POWELL| Reached  20% of maximal function calls                    75.0564056446
 POWELL| Reached  22% of maximal function calls                    74.3849043674
 POWELL| Reached  24% of maximal function calls                    74.3849043674
 POWELL| Reached  26% of maximal function calls                    74.3849043674
 POWELL| Reached  28% of maximal function calls                    74.3849043674
 POWELL| Reached  30% of maximal function calls                    74.3849043674
 POWELL| Reached  32% of maximal function calls                    74.3849043674
 POWELL| Reached  34% of maximal function calls                    74.3849043674
 POWELL| Reached  36% of maximal function calls                    74.3849043674
 POWELL| Reached  38% of maximal function calls                    74.3849043674
 POWELL| Reached  40% of maximal function calls                    74.3849043674
 POWELL| Reached  42% of maximal function calls                    74.3849043674
 POWELL| Reached  44% of maximal function calls                    74.3849043674
 POWELL| Reached  46% of maximal function calls                    74.3849043674
 POWELL| Reached  48% of maximal function calls                    74.3849043674
 POWELL| Reached  50% of maximal function calls                    74.3849043674
 POWELL| Reached  52% of maximal function calls                    74.3849043674
 POWELL| Reached  54% of maximal function calls                    74.3849043674
 POWELL| Reached  56% of maximal function calls                    74.3849043674
 POWELL| Reached  57% of maximal function calls                    74.2152476334
 POWELL| Reached  60% of maximal function calls                    74.2152476334
 POWELL| Reached  62% of maximal function calls                    74.2152476334
 POWELL| Reached  64% of maximal function calls                    74.1912528822
 POWELL| Reached  66% of maximal function calls                    74.1634439557
 POWELL| Reached  68% of maximal function calls                    74.1634439557
 POWELL| Reached  70% of maximal function calls                    74.1580342455
 POWELL| Reached  72% of maximal function calls                    74.1530719981
 POWELL| Reached  74% of maximal function calls                    74.1172612348
 POWELL| Reached  76% of maximal function calls                    74.1172612348
 POWELL| Reached  78% of maximal function calls                    74.1172612348
 POWELL| Reached  80% of maximal function calls                    74.1172563526
 POWELL| Reached  82% of maximal function calls                    74.1171137832
 POWELL| Reached  84% of maximal function calls                    74.1171137832
 POWELL| Reached  86% of maximal function calls                    74.1171137832
 POWELL| Reached  88% of maximal function calls                    74.1171137832
 POWELL| Reached  90% of maximal function calls                    74.1171137832
 POWELL| Reached  92% of maximal function calls                    74.1169290746
 POWELL| Reached  94% of maximal function calls                    74.1169290746
 POWELL| Reached  96% of maximal function calls                    74.1168730178
[...]
 POWELL| Start optimization  48 of total  50               rhobeg =   0.00030954
 POWELL| Inital value of function                                  26.2097018775
 POWELL| Reached   6% of maximal function calls                    26.2097018775
 POWELL| Reached   8% of maximal function calls                    26.2097018775
 POWELL| Reached  10% of maximal function calls                    26.2097018775
 POWELL| Reached  12% of maximal function calls                    26.2097018775
 POWELL| Reached  14% of maximal function calls                    26.2097018775
 POWELL| Reached  16% of maximal function calls                    26.2097018775
 POWELL| Reached  18% of maximal function calls                    26.2097018775
 POWELL| Reached  20% of maximal function calls                    26.2097018775
 POWELL| Reached  22% of maximal function calls                    26.2097018775
 POWELL| Reached  24% of maximal function calls                    26.1317959721
 POWELL| Reached  26% of maximal function calls                    26.1317959721
 POWELL| Reached  28% of maximal function calls                    26.1317959721
 POWELL| Reached  30% of maximal function calls                    26.1317959721
 POWELL| Reached  32% of maximal function calls                    26.1317959721
 POWELL| Reached  34% of maximal function calls                    26.0549591970
 POWELL| Reached  36% of maximal function calls                    26.0549591970
 POWELL| Reached  38% of maximal function calls                    26.0549591970
 POWELL| Reached  40% of maximal function calls                    26.0549591970
 POWELL| Reached  42% of maximal function calls                    26.0549591970
 POWELL| Reached  44% of maximal function calls                    25.9344392854
 POWELL| Reached  46% of maximal function calls                    25.9344392854
 POWELL| Reached  48% of maximal function calls                    25.9344392854
 POWELL| Reached  50% of maximal function calls                    25.9344392854
 POWELL| Reached  52% of maximal function calls                    25.9344392854
 POWELL| Reached  54% of maximal function calls                    25.9344392854
 POWELL| Reached  56% of maximal function calls                    25.9344392854
 POWELL| Reached  57% of maximal function calls                    25.9276321307
 POWELL| Reached  60% of maximal function calls                    25.9276321307
 POWELL| Reached  62% of maximal function calls                    25.9276321307
 POWELL| Reached  64% of maximal function calls                    25.9276321307
 POWELL| Reached  66% of maximal function calls                    25.9276321307
 POWELL| Reached  68% of maximal function calls                    25.9253758529
 POWELL| Reached  70% of maximal function calls                    25.9252221441
 POWELL| Reached  72% of maximal function calls                    25.9226361470
 POWELL| Reached  74% of maximal function calls                    25.9207491438
 POWELL| Reached  76% of maximal function calls                    25.9207219578
 POWELL| Reached  78% of maximal function calls                    25.9206983164
 POWELL| Reached  80% of maximal function calls                    25.9206983164
 POWELL| Reached  82% of maximal function calls                    25.9206983164
 POWELL| Reached  84% of maximal function calls                    25.9206983164
 POWELL| Reached  86% of maximal function calls                    25.9206983164
 POWELL| Reached  88% of maximal function calls                    25.9204405756
 POWELL| Reached  90% of maximal function calls                    25.9204405756
 POWELL| Reached  92% of maximal function calls                    25.9204405756
 POWELL| Reached  94% of maximal function calls                    25.9204405756
 POWELL| Reached  96% of maximal function calls                    25.9204405756
 POWELL| Reached  98% of maximal function calls                    25.9204405756
 POWELL| Reached 100% of maximal function calls                    25.9203594178
 POWELL| Reached 100% of maximal function calls                    25.9203594178
 POWELL| Exceeding maximum number of steps
 POWELL| Reached 100% of maximal function calls                    25.9203594178
 POWELL| RMS average of variables                                   0.0000945794
 POWELL| Start optimization  49 of total  50               rhobeg =   0.00030335
 POWELL| Inital value of function                                  25.9203594178
 POWELL| Reached   6% of maximal function calls                    25.9203594178
 POWELL| Reached   8% of maximal function calls                    25.9203594178
 POWELL| Reached  10% of maximal function calls                    25.9203594178
 POWELL| Reached  12% of maximal function calls                    25.9203594178
 POWELL| Reached  14% of maximal function calls                    25.9203594178
 POWELL| Reached  16% of maximal function calls                    25.9203594178
 POWELL| Reached  18% of maximal function calls                    25.9203594178
 POWELL| Reached  20% of maximal function calls                    25.9203594178
 POWELL| Reached  22% of maximal function calls                    25.9203594178
 POWELL| Reached  24% of maximal function calls                    25.9203594178
 POWELL| Reached  26% of maximal function calls                    25.9203594178
 POWELL| Reached  28% of maximal function calls                    25.9203594178
 POWELL| Reached  30% of maximal function calls                    25.9203594178
 POWELL| Reached  32% of maximal function calls                    25.9203594178
 POWELL| Reached  34% of maximal function calls                    25.8403174819
 POWELL| Reached  36% of maximal function calls                    25.8403174819
 POWELL| Reached  38% of maximal function calls                    25.8403174819
 POWELL| Reached  40% of maximal function calls                    25.8403174819
 POWELL| Reached  42% of maximal function calls                    25.8403174819
 POWELL| Reached  44% of maximal function calls                    25.8403174819
 POWELL| Reached  46% of maximal function calls                    25.8403174819
 POWELL| Reached  48% of maximal function calls                    25.8403174819
 POWELL| Reached  50% of maximal function calls                    25.8403174819
 POWELL| Reached  52% of maximal function calls                    25.8403174819
 POWELL| Reached  54% of maximal function calls                    25.8403174819
 POWELL| Reached  56% of maximal function calls                    25.8403174819
 POWELL| Reached  57% of maximal function calls                    25.8330635200
 POWELL| Reached  60% of maximal function calls                    25.8330635200
 POWELL| Reached  62% of maximal function calls                    25.8330635200
 POWELL| Reached  64% of maximal function calls                    25.8330635200
 POWELL| Reached  66% of maximal function calls                    25.8307898644
 POWELL| Reached  68% of maximal function calls                    25.8286475439
 POWELL| Reached  70% of maximal function calls                    25.8259080615
 POWELL| Reached  72% of maximal function calls                    25.8238975519
 POWELL| Reached  74% of maximal function calls                    25.8238975519
 POWELL| Reached  76% of maximal function calls                    25.8238975519
 POWELL| Reached  78% of maximal function calls                    25.8238975519
 POWELL| Reached  80% of maximal function calls                    25.8238975519
 POWELL| Reached  82% of maximal function calls                    25.8238975519
 POWELL| Reached  84% of maximal function calls                    25.8238975519
 POWELL| Reached  86% of maximal function calls                    25.8238975519
 POWELL| Reached  88% of maximal function calls                    25.8238975519
 POWELL| Reached  90% of maximal function calls                    25.8237710449
 POWELL| Reached  92% of maximal function calls                    25.8237710449
 POWELL| Reached  94% of maximal function calls                    25.8234839483
 POWELL| Reached  96% of maximal function calls                    25.8234839483
 POWELL| Reached  98% of maximal function calls                    25.8234839483
 POWELL| Reached 100% of maximal function calls                    25.8234839483
 POWELL| Reached 100% of maximal function calls                    25.8234839483
 POWELL| Exceeding maximum number of steps
 POWELL| Reached 100% of maximal function calls                    25.8234839483
 POWELL| RMS average of variables                                   0.0000932387
 POWELL| Start optimization  50 of total  50               rhobeg =   0.00029728
 POWELL| Inital value of function                                  25.8234839483
 POWELL| Reached   6% of maximal function calls                    25.8234839483
 POWELL| Reached   8% of maximal function calls                    25.8234839483
 POWELL| Reached  10% of maximal function calls                    25.8234839483
 POWELL| Reached  12% of maximal function calls                    25.8234839483
 POWELL| Reached  14% of maximal function calls                    25.8234839483
 POWELL| Reached  16% of maximal function calls                    25.8234839483
 POWELL| Reached  18% of maximal function calls                    25.8234839483
 POWELL| Reached  20% of maximal function calls                    25.8234839483
 POWELL| Reached  22% of maximal function calls                    25.7589272764
 POWELL| Reached  24% of maximal function calls                    25.7589272764
 POWELL| Reached  26% of maximal function calls                    25.7589272764
 POWELL| Reached  28% of maximal function calls                    25.7589272764
 POWELL| Reached  30% of maximal function calls                    25.7589272764
 POWELL| Reached  32% of maximal function calls                    25.7589272764
 POWELL| Reached  34% of maximal function calls                    25.7578359808
 POWELL| Reached  36% of maximal function calls                    25.7578359808
 POWELL| Reached  38% of maximal function calls                    25.7578359808
 POWELL| Reached  40% of maximal function calls                    25.7578359808
 POWELL| Reached  42% of maximal function calls                    25.7578359808
 POWELL| Reached  44% of maximal function calls                    25.7578359808
 POWELL| Reached  46% of maximal function calls                    25.7578359808
 POWELL| Reached  48% of maximal function calls                    25.7578359808
 POWELL| Reached  50% of maximal function calls                    25.7578359808
 POWELL| Reached  52% of maximal function calls                    25.7578359808
 POWELL| Reached  54% of maximal function calls                    25.7545862259
 POWELL| Reached  56% of maximal function calls                    25.7545862259
 POWELL| Reached  57% of maximal function calls                    25.7545862259
 POWELL| Reached  60% of maximal function calls                    25.7545862259
 POWELL| Reached  62% of maximal function calls                    25.7545862259
 POWELL| Reached  64% of maximal function calls                    25.7545862259
 POWELL| Reached  66% of maximal function calls                    25.7545862259
 POWELL| Reached  68% of maximal function calls                    25.7545862259
 POWELL| Reached  70% of maximal function calls                    25.7522714744
 POWELL| Reached  72% of maximal function calls                    25.7506407553
 POWELL| Reached  74% of maximal function calls                    25.7506407553
 POWELL| Reached  76% of maximal function calls                    25.7506407553
 POWELL| Reached  78% of maximal function calls                    25.7506407553
 POWELL| Reached  80% of maximal function calls                    25.7506309035
 POWELL| Reached  82% of maximal function calls                    25.7506309035
 POWELL| Reached  84% of maximal function calls                    25.7506212889
 POWELL| Reached  86% of maximal function calls                    25.7506212889
 POWELL| Reached  88% of maximal function calls                    25.7506212889
 POWELL| Reached  90% of maximal function calls                    25.7506212889
 POWELL| Reached  92% of maximal function calls                    25.7506172334
 POWELL| Reached  94% of maximal function calls                    25.7506172334
 POWELL| Reached  96% of maximal function calls                    25.7506172334
 POWELL| Reached  98% of maximal function calls                    25.7505248495
 POWELL| Reached 100% of maximal function calls                    25.7505087699
 POWELL| Reached 100% of maximal function calls                    25.7504721871
 POWELL| Exceeding maximum number of steps
 POWELL| Reached 100% of maximal function calls                    25.7504721871
 POWELL| RMS average of variables                                   0.0000825220
 POWELL| Number of function evaluations                                       50
 POWELL| Final value of function                                   25.7504721871

 POWELL| Final errors of target values

 Reference configuration          1               Method number                1
    L    N    Occupation      Eigenvalue [eV]           dE [eV]          dCharge 
    0    1          2.00      -213.3248588283 SC  -0.014386[ 2]    -0.000001[ X]
    0    2          2.00       -17.2733757083 VA   0.001357[ 5]     0.007018[ 2]
    0    3          0.00        -0.2262851056 U1  -0.032702[ 8]     0.008200[ 0]
    0    4          0.00         4.3930328435 U2  -0.072275[ 0]     0.006609[ 0]
    1    1          6.00      -152.8587252093 SC  -0.005575[ 0]     0.000000[ X]
    1    2          4.00        -6.5046480919 VA   0.003995[59]     0.002904[ 0]
    1    3          0.00         1.3723847693 U1  -0.001242[ X]     0.000054[ X]
    1    4          0.00         6.9800570497 U2  -0.008757[ X]     0.000740[ 0]
    2    1         10.00       -53.0832589590 SC   0.018249[ 4]    -0.000316[ X]
    2    2          0.00         1.9989019764 U1   0.050217[19]    -0.009410[ 0]
    2    3          0.00         5.9600060326 U2   0.206954[ 0]    -0.017851[ 0]
    3    1          0.00         4.2616592653 U1   0.003200[ 0]    -0.000011[ X]
    s-states N=    1                   Wavefunction at r=0:        -0.834326[ 0]
    s-states N=    2                   Wavefunction at r=0:        -1.755423[ 0]
    s-states N=    3                   Wavefunction at r=0:        -0.567349[ 0]
    s-states N=    4                   Wavefunction at r=0:         0.734315[ 0]

 Number of target values reached:                                       7 of  21



                             NORMAL TERMINATION OF     
                                                       
                           ****  ******  ****   ****   
                          **  ** ****** **  ** ******  
                          ******   **   **  ** **  **  
                          **  **   **    ****  **  **  


 -------------------------------------------------------------------------------
 -                                                                             -
 -                                DBCSR STATISTICS                             -
 -                                                                             -
 -------------------------------------------------------------------------------
 COUNTER                                    TOTAL       BLAS       SMM       ACC
 flops inhomo. stacks                           0       0.0%      0.0%      0.0%
 flops total                         0.000000E+00       0.0%      0.0%      0.0%
 flops max/rank                      0.000000E+00       0.0%      0.0%      0.0%
 matmuls inhomo. stacks                         0       0.0%      0.0%      0.0%
 matmuls total                                  0       0.0%      0.0%      0.0%
 number of processed stacks                     0       0.0%      0.0%      0.0%
 average stack size                                     0.0       0.0       0.0
 marketing flops                     0.000000E+00
 -------------------------------------------------------------------------------

 MEMORY| Estimated peak process memory [MiB]                                  47

 -------------------------------------------------------------------------------
 -                                                                             -
 -                           R E F E R E N C E S                               -
 -                                                                             -
 -------------------------------------------------------------------------------
 
 CP2K version 7.0 (Development Version), the CP2K developers group (2018).
 CP2K is freely available from https://www.cp2k.org/ .

 Schuett, Ole; Messmer, Peter; Hutter, Juerg; VandeVondele, Joost. 
 Electronic Structure Calculations on Graphics Processing Units, John Wiley & Sons, Ltd, 173-190 (2016). 
 GPU-Accelerated Sparse Matrix-Matrix Multiplication for Linear Scaling Density Functional Theory.
 http://dx.doi.org/10.1002/9781118670712.ch8


 Borstnik, U; VandeVondele, J; Weber, V; Hutter, J. 
 PARALLEL COMPUTING, 40 (5-6), 47-58 (2014). 
 Sparse matrix multiplication: The distributed block-compressed sparse
 row library.
 http://dx.doi.org/10.1016/j.parco.2014.03.012


 Hutter, J; Iannuzzi, M; Schiffmann, F; VandeVondele, J. 
 WILEY INTERDISCIPLINARY REVIEWS-COMPUTATIONAL MOLECULAR SCIENCE, 4 (1), 15-25 (2014). 
 CP2K: atomistic simulations of condensed matter systems.
 http://dx.doi.org/10.1002/wcms.1159


 Frigo, M; Johnson, SG. 
 PROCEEDINGS OF THE IEEE, 93 (2), 216-231 (2005). 
 The design and implementation of FFTW3.
 http://dx.doi.org/10.1109/JPROC.2004.840301


 Perdew, JP; Burke, K; Ernzerhof, M. 
 PHYSICAL REVIEW LETTERS, 77 (18), 3865-3868 (1996). 
 Generalized gradient approximation made simple.
 http://dx.doi.org/10.1103/PhysRevLett.77.3865


 -------------------------------------------------------------------------------
 -                                                                             -
 -                                T I M I N G                                  -
 -                                                                             -
 -------------------------------------------------------------------------------
 SUBROUTINE                       CALLS  ASD         SELF TIME        TOTAL TIME
                                MAXIMUM       AVERAGE  MAXIMUM  AVERAGE  MAXIMUM
 CP2K                                 1  1.0    0.003    0.003  616.518  616.518
 atom_code                            1  2.0    0.000    0.000  616.514  616.514
 atom_pseudo_opt                      1  3.0    4.764    4.764  616.514  616.514
 calculate_atom                    2806  4.0    0.009    0.009  608.944  608.944
 calculate_atom_restricted         2806  5.0  212.332  212.332  608.935  608.935
 calculate_atom_vxc_lda          120162  6.0  371.223  371.223  396.602  396.602
 xc_functional_eval              120162  7.0    0.300    0.300   25.238   25.238
 pbe_lda_eval                    120162  8.0   24.938   24.938   24.938   24.938
 -------------------------------------------------------------------------------

 The number of warnings for this run is : 0
 
 -------------------------------------------------------------------------------
  **** **** ******  **  PROGRAM ENDED AT                 2018-06-24 13:58:23.258
 ***** ** ***  *** **   PROGRAM RAN ON                                    tcpc01
 **    ****   ******    PROGRAM RAN BY                                    hutter
 ***** **    ** ** **   PROGRAM PROCESS ID                                 31166
  **** **  *******  **  PROGRAM STOPPED IN /data/hutter/pseudo/UZH2018/PBE/Se/q2
                                           4
