
  **** **** ******  **  PROGRAM STARTED AT               2018-06-24 19:41:01.228
 ***** ** ***  *** **   PROGRAM STARTED ON                                tcpc01
 **    ****   ******    PROGRAM STARTED BY                                hutter
 ***** **    ** ** **   PROGRAM PROCESS ID                                  1994
  **** **  *******  **  PROGRAM STARTED IN /data/hutter/pseudo/UZH2018/PBE/Cr/q1
                                           4

 CP2K| version string:                    CP2K version 7.0 (Development Version)
 CP2K| source code revision number:                                    svn:18485
 CP2K| cp2kflags: libint fftw3 libxc libderiv_max_am1=5 libint_max_am=6 spglib  
 CP2K| is freely available from                            https://www.cp2k.org/
 CP2K| Program compiled at                         Wed Jun 20 10:41:43 CEST 2018
 CP2K| Program compiled on                                                tcpc01
 CP2K| Program compiled for                                                local
 CP2K| Data directory path                        /data/hutter/CURRENT/cp2k/data
 CP2K| Input file name                                                    Cr.inp

 GLOBAL| Method name                                                        ATOM
 GLOBAL| Project name                                                    PROJECT
 GLOBAL| Preferred FFT library                                             FFTW3
 GLOBAL| Preferred diagonalization lib.                                       SL
 GLOBAL| Run type                                                   ENERGY_FORCE
 GLOBAL| All-to-all communication in single precision                          F
 GLOBAL| FFTs using library dependent lengths                                  F
 GLOBAL| Global print level                                               MEDIUM
 GLOBAL| Total number of message passing processes                             1
 GLOBAL| Number of threads for this process                                    1
 GLOBAL| This output is from process                                           0
 GLOBAL| CPU model name :  Intel(R) Xeon(R) CPU           X5570  @ 2.93GHz

 MEMORY| system memory details [Kb]
 MEMORY|                        rank 0           min           max       average
 MEMORY| MemTotal             37009584      37009584      37009584      37009584
 MEMORY| MemFree              32229168      32229168      32229168      32229168
 MEMORY| Buffers                297060        297060        297060        297060
 MEMORY| Cached                2032540       2032540       2032540       2032540
 MEMORY| Slab                   272388        272388        272388        272388
 MEMORY| SReclaimable           203680        203680        203680        203680
 MEMORY| MemLikelyFree        34762448      34762448      34762448      34762448


 *** Fundamental physical constants (SI units) ***

 *** Literature: B. J. Mohr and B. N. Taylor,
 ***             CODATA recommended values of the fundamental physical
 ***             constants: 2006, Web Version 5.1
 ***             http://physics.nist.gov/constants

 Speed of light in vacuum [m/s]                             2.99792458000000E+08
 Magnetic constant or permeability of vacuum [N/A**2]       1.25663706143592E-06
 Electric constant or permittivity of vacuum [F/m]          8.85418781762039E-12
 Planck constant (h) [J*s]                                  6.62606896000000E-34
 Planck constant (h-bar) [J*s]                              1.05457162825177E-34
 Elementary charge [C]                                      1.60217648700000E-19
 Electron mass [kg]                                         9.10938215000000E-31
 Electron g factor [ ]                                     -2.00231930436220E+00
 Proton mass [kg]                                           1.67262163700000E-27
 Fine-structure constant                                    7.29735253760000E-03
 Rydberg constant [1/m]                                     1.09737315685270E+07
 Avogadro constant [1/mol]                                  6.02214179000000E+23
 Boltzmann constant [J/K]                                   1.38065040000000E-23
 Atomic mass unit [kg]                                      1.66053878200000E-27
 Bohr radius [m]                                            5.29177208590000E-11

 *** Conversion factors ***

 [u] -> [a.u.]                                              1.82288848426455E+03
 [Angstrom] -> [Bohr] = [a.u.]                              1.88972613288564E+00
 [a.u.] = [Bohr] -> [Angstrom]                              5.29177208590000E-01
 [a.u.] -> [s]                                              2.41888432650478E-17
 [a.u.] -> [fs]                                             2.41888432650478E-02
 [a.u.] -> [J]                                              4.35974393937059E-18
 [a.u.] -> [N]                                              8.23872205491840E-08
 [a.u.] -> [K]                                              3.15774647902944E+05
 [a.u.] -> [kJ/mol]                                         2.62549961709828E+03
 [a.u.] -> [kcal/mol]                                       6.27509468713739E+02
 [a.u.] -> [Pa]                                             2.94210107994716E+13
 [a.u.] -> [bar]                                            2.94210107994716E+08
 [a.u.] -> [atm]                                            2.90362800883016E+08
 [a.u.] -> [eV]                                             2.72113838565563E+01
 [a.u.] -> [Hz]                                             6.57968392072181E+15
 [a.u.] -> [1/cm] (wave numbers)                            2.19474631370540E+05
 [a.u./Bohr**2] -> [1/cm]                                   5.14048714338585E+03
 
 DBCSR| Multiplication driver                                               BLAS
 DBCSR| Multrec recursion limit                                              512
 DBCSR| Multiplication stack size                                           1000
 DBCSR| Maximum elements for images                                    UNLIMITED
 DBCSR| Multiplicative factor virtual images                                   1
 DBCSR| Multiplication size stacks                                             3



                           ****  ******  ****   ****   
                          **  ** ****** **  ** ******  
                          ******   **   **  ** **  **  
                          **  **   **    ****  **  **  
                                                       
                             University of Zurich      
                                 2009 - 2015           
                                                       
                                 Version 0.0           
                                                                   


 Atomic Energy Calculation             Chromium [Cr]         Atomic number:   24


 *******************************************************************************
 ************************** Calculate Reference States *************************
 *******************************************************************************

 METHOD    | Restricted Kohn-Sham Calculation
 METHOD    | Relativistic Calculation using Douglas-Kroll 3rd order
 FUNCTIONAL| ROUTINE=NEW
 FUNCTIONAL| PBE:
 FUNCTIONAL| J.P.Perdew, K.Burke, M.Ernzerhof, Phys. Rev. Letter, vol. 77, n 18,
 FUNCTIONAL|  pp. 3865-3868, (1996){spin unpolarized}                           

 Electronic structure
    Total number of core electrons                                          0.00
    Total number of valence electrons                                      24.00
    Total number of electrons                                              24.00
    Multiplicity                                                   not specified
    S      2.00  2.00  2.00  2.00
    P      6.00  6.00
    D      4.00


 *******************************************************************************
                  Iteration          Convergence                     Energy [au]
 *******************************************************************************
                          1         12.5536                   -1017.721506505318
                          2         5.94747                   -1000.513768094862
                          3         2.70491                   -1042.535987481365
                          4        0.896026                   -1049.812590355154
                          5        0.269905E-01               -1050.377817349041
                          6        0.344660E-01               -1050.377623125212
                          7        0.623574E-03               -1050.379485457513
                          8        0.123518E-03               -1050.379486191360
                          9        0.100149E-04               -1050.379486200735
                         10        0.338373E-06               -1050.379486200989
                         11        0.207030E-06               -1050.379486200985
                         12        0.982801E-07               -1050.379486200990

 Energy components [Hartree]           Total Energy ::        -1050.379486200990
                                        Band Energy ::         -623.855490149809
                                     Kinetic Energy ::         1087.882531220623
                                   Potential Energy ::        -2138.262017421614
                                      Virial (-V/T) ::            1.965526567489
                                        Core Energy ::        -1442.709296218116
                                          XC Energy ::          -48.579918901665
                                     Coulomb Energy ::          440.909728918790
                                        Confinement ::            0.000000149439

 Orbital energies  State     L     Occupation   Energy[a.u.]          Energy[eV]

                       1     0          2.000    -216.095393        -5880.254702
                       2     0          2.000     -24.664514         -671.155557
                       3     0          2.000      -2.863096          -77.908795
                       4     0          2.000      -0.180193           -4.903312
                       5     0          0.000       0.037130            1.010358
                       6     0          0.000       0.256612            6.982778

                       1     1          6.000     -20.752294         -564.698650
                       2     1          6.000      -1.809153          -49.229547
                       3     1          0.000      -0.050068           -1.362431
                       4     1          0.000       0.094968            2.584222

                       1     2          4.000      -0.220104           -5.989326
                       2     2          0.000       0.068289            1.858227
                       3     2          0.000       0.237685            6.467730

                       1     3          0.000       0.147325            4.008909


 Total Electron Density at R=0:                                     17397.715347

 *******************************************************************************
 ********************* Optimize Pseudopotential Parameters *********************
 *******************************************************************************

 POWELL| Start optimization procedure

 POWELL| Total number of parameters in optimization                           13

 POWELL| Initial errors of target values

 Reference configuration          1               Method number                1
    L    N    Occupation      Eigenvalue [eV]           dE [eV]          dCharge 
    0    1          2.00       -77.9723612544 SC  -0.063567[12]    -0.000170[ X]
    0    2          2.00        -4.8934416204 VA   0.009870[76]    -0.001515[ 0]
    0    3          0.00         1.0114055235 U1   0.001047[ X]     0.000207[ X]
    0    4          0.00         6.9843485696 U2   0.001570[ X]     0.000870[ 0]
    1    1          6.00       -49.1954308804 SC   0.034116[ 3]    -0.000671[ X]
    1    2          0.00        -1.3073475388 U1   0.055083[ 4]    -0.008724[ 0]
    1    3          0.00         2.6384176496 U2   0.054196[ 0]    -0.003221[ 0]
    2    1          4.00        -5.9868068124 VA   0.002519[ 4]    -0.004393[ 0]
    2    2          0.00         1.8586182404 U1   0.000391[ X]     0.000405[ X]
    2    3          0.00         6.4833911119 U2   0.015661[ X]    -0.002029[ 0]
    3    1          0.00         4.0028967031 U1  -0.006012[ 0]     0.000008[ X]

 Number of target values reached:                                       9 of  19

 POWELL| Start optimization   1 of total 100               rhobeg =   0.00080000
 POWELL| Inital value of function                                 139.3257666762
 POWELL| Reached   6% of maximal function calls                   139.3257666762
 POWELL| Reached   8% of maximal function calls                   139.3257666762
 POWELL| Reached  10% of maximal function calls                   139.3257666762
 POWELL| Reached  12% of maximal function calls                   139.3257666762
 POWELL| Reached  14% of maximal function calls                   139.2011691132
 POWELL| Reached  16% of maximal function calls                   139.2011691132
 POWELL| Reached  18% of maximal function calls                   139.2011691132
 POWELL| Reached  20% of maximal function calls                   139.2011691132
 POWELL| Reached  22% of maximal function calls                   138.3794338326
 POWELL| Reached  24% of maximal function calls                   138.3794338326
 POWELL| Reached  26% of maximal function calls                   138.3794338326
 POWELL| Reached  28% of maximal function calls                   138.3794338326
 POWELL| Reached  30% of maximal function calls                   138.3794338326
 POWELL| Reached  32% of maximal function calls                   138.3794338326
 POWELL| Reached  34% of maximal function calls                   138.3794338326
 POWELL| Reached  36% of maximal function calls                   138.3794338326
 POWELL| Reached  38% of maximal function calls                   138.3794338326
 POWELL| Reached  40% of maximal function calls                   138.3794338326
 POWELL| Reached  42% of maximal function calls                   138.3794338326
 POWELL| Reached  44% of maximal function calls                   138.3794338326
 POWELL| Reached  46% of maximal function calls                   138.3794338326
 POWELL| Reached  48% of maximal function calls                   138.3794338326
 POWELL| Reached  50% of maximal function calls                   138.3794338326
 POWELL| Reached  52% of maximal function calls                   138.3794338326
 POWELL| Reached  54% of maximal function calls                   138.3794338326
 POWELL| Reached  56% of maximal function calls                   138.3794338326
 POWELL| Reached  57% of maximal function calls                   138.3794338326
 POWELL| Reached  60% of maximal function calls                   138.1878432734
 POWELL| Reached  62% of maximal function calls                   138.1878432734
 POWELL| Reached  64% of maximal function calls                   138.1878432734
 POWELL| Reached  66% of maximal function calls                   138.1870937094
 POWELL| Reached  68% of maximal function calls                   138.1844145257
 POWELL| Reached  70% of maximal function calls                   138.1843362004
 POWELL| Reached  72% of maximal function calls                   138.1843362004
 POWELL| Reached  74% of maximal function calls                   138.1836685166
 POWELL| Reached  76% of maximal function calls                   138.1836057857
 POWELL| Reached  78% of maximal function calls                   138.1836057857
 POWELL| Reached  80% of maximal function calls                   138.1836057857
 POWELL| Reached  82% of maximal function calls                   138.1836057857
 POWELL| Reached  84% of maximal function calls                   138.1835825351
 POWELL| Reached  86% of maximal function calls                   138.1835825351
 POWELL| Reached  88% of maximal function calls                   138.1835771894
 POWELL| Reached  90% of maximal function calls                   138.1835759282
 POWELL| Reached  92% of maximal function calls                   138.1835686163
 POWELL| Reached  94% of maximal function calls                   138.1835686163
 POWELL| Reached  96% of maximal function calls                   138.1835633406
 POWELL| Reached  98% of maximal function calls                   138.1835633406
 POWELL| Reached 100% of maximal function calls                   138.1835564630
 POWELL| Reached 100% of maximal function calls                   138.1834402014
 POWELL| Exceeding maximum number of steps
 POWELL| Reached 100% of maximal function calls                   138.1834402014
 POWELL| RMS average of variables                                   0.0002245993
 POWELL| Start optimization   2 of total 100               rhobeg =   0.00078400
 POWELL| Inital value of function                                 138.1834402014
 POWELL| Reached   6% of maximal function calls                   138.1834402014
 POWELL| Reached   8% of maximal function calls                   138.1834402014
 POWELL| Reached  10% of maximal function calls                   138.1834402014
 POWELL| Reached  12% of maximal function calls                   138.1834402014
 POWELL| Reached  14% of maximal function calls                   138.1834402014
 POWELL| Reached  16% of maximal function calls                   138.1834402014
 POWELL| Reached  18% of maximal function calls                   138.1834402014
 POWELL| Reached  20% of maximal function calls                   138.1834402014
 POWELL| Reached  22% of maximal function calls                   138.1834402014
 POWELL| Reached  24% of maximal function calls                   138.1834402014
 POWELL| Reached  26% of maximal function calls                   138.1834402014
 POWELL| Reached  28% of maximal function calls                   138.1834402014
 POWELL| Reached  30% of maximal function calls                   138.1834402014
 POWELL| Reached  32% of maximal function calls                   138.1834402014
 POWELL| Reached  34% of maximal function calls                   138.1834402014
 POWELL| Reached  36% of maximal function calls                   138.1834402014
 POWELL| Reached  38% of maximal function calls                   138.1834402014
 POWELL| Reached  40% of maximal function calls                   138.1834402014
 POWELL| Reached  42% of maximal function calls                   138.1834402014
 POWELL| Reached  44% of maximal function calls                   137.9471308242
 POWELL| Reached  46% of maximal function calls                   137.9471308242
 POWELL| Reached  48% of maximal function calls                   137.9471308242
 POWELL| Reached  50% of maximal function calls                   137.9471308242
 POWELL| Reached  52% of maximal function calls                   137.9471308242
 POWELL| Reached  54% of maximal function calls                   137.9471308242
 POWELL| Reached  56% of maximal function calls                   137.9471308242
 POWELL| Reached  57% of maximal function calls                   137.9471308242
 POWELL| Reached  60% of maximal function calls                   137.9471308242
 POWELL| Reached  62% of maximal function calls                   137.9471308242
 POWELL| Reached  64% of maximal function calls                   137.9471308242
 POWELL| Reached  66% of maximal function calls                   137.9471308242
 POWELL| Reached  68% of maximal function calls                   137.9311339608
 POWELL| Reached  70% of maximal function calls                   137.9303062339
 POWELL| Reached  72% of maximal function calls                   137.9178861878
 POWELL| Reached  74% of maximal function calls                   137.9094493506
 POWELL| Reached  76% of maximal function calls                   137.9092902343
 POWELL| Reached  78% of maximal function calls                   137.9092902343
 POWELL| Reached  80% of maximal function calls                   137.9092902343
 POWELL| Reached  82% of maximal function calls                   137.9092902343
 POWELL| Reached  84% of maximal function calls                   137.9091616013
 POWELL| Reached  86% of maximal function calls                   137.9091616013
 POWELL| Reached  88% of maximal function calls                   137.9089557787
 POWELL| Reached  90% of maximal function calls                   137.9087353673
 POWELL| Reached  92% of maximal function calls                   137.9087353673
 POWELL| Reached  94% of maximal function calls                   137.9087353673
 POWELL| Reached  96% of maximal function calls                   137.9087096549
 POWELL| Reached  98% of maximal function calls                   137.9087096549
 POWELL| Reached 100% of maximal function calls                   137.9087096549
 POWELL| Reached 100% of maximal function calls                   137.9087096549
 POWELL| Exceeding maximum number of steps
 POWELL| Reached 100% of maximal function calls                   137.9087096549
 POWELL| RMS average of variables                                   0.0002177959
 POWELL| Start optimization   3 of total 100               rhobeg =   0.00076832
 POWELL| Inital value of function                                 137.9087096549
 POWELL| Reached   6% of maximal function calls                   137.9087096549
 POWELL| Reached   8% of maximal function calls                   137.9087096549
 POWELL| Reached  10% of maximal function calls                   137.9087096549
 POWELL| Reached  12% of maximal function calls                   137.9087096549
 POWELL| Reached  14% of maximal function calls                   137.8000549325
 POWELL| Reached  16% of maximal function calls                   137.8000549325
 POWELL| Reached  18% of maximal function calls                   137.8000549325
 POWELL| Reached  20% of maximal function calls                   137.8000549325
 POWELL| Reached  22% of maximal function calls                   137.8000549325
 POWELL| Reached  24% of maximal function calls                   137.8000549325
 POWELL| Reached  26% of maximal function calls                   137.8000549325
 POWELL| Reached  28% of maximal function calls                   137.8000549325
 POWELL| Reached  30% of maximal function calls                   137.8000549325
 POWELL| Reached  32% of maximal function calls                   137.8000549325
 POWELL| Reached  34% of maximal function calls                   137.7657796738
 POWELL| Reached  36% of maximal function calls                   137.7657796738
 POWELL| Reached  38% of maximal function calls                   137.7657796738
 POWELL| Reached  40% of maximal function calls                   137.7657796738
 POWELL| Reached  42% of maximal function calls                   137.7657796738
 POWELL| Reached  44% of maximal function calls                   137.7657796738
 POWELL| Reached  46% of maximal function calls                   137.7657796738
 POWELL| Reached  48% of maximal function calls                   137.7657796738
 POWELL| Reached  50% of maximal function calls                   137.7657796738
 POWELL| Reached  52% of maximal function calls                   137.7657796738
 POWELL| Reached  54% of maximal function calls                   137.7657796738
 POWELL| Reached  56% of maximal function calls                   137.7657796738
 POWELL| Reached  57% of maximal function calls                   137.7595814765
 POWELL| Reached  60% of maximal function calls                   137.7595814765
 POWELL| Reached  62% of maximal function calls                   137.7595814765
 POWELL| Reached  64% of maximal function calls                   137.7595814765
 POWELL| Reached  66% of maximal function calls                   137.7523512530
 POWELL| Reached  68% of maximal function calls                   137.7469312685
 POWELL| Reached  70% of maximal function calls                   137.7469312685
 POWELL| Reached  72% of maximal function calls                   137.7469312685
 POWELL| Reached  74% of maximal function calls                   137.7469312685
 POWELL| Reached  76% of maximal function calls                   137.7469312685
 POWELL| Reached  78% of maximal function calls                   137.7461964555
 POWELL| Reached  80% of maximal function calls                   137.7461964555
 POWELL| Reached  82% of maximal function calls                   137.7461964555
 POWELL| Reached  84% of maximal function calls                   137.7461964555
 POWELL| Reached  86% of maximal function calls                   137.7461209516
 POWELL| Reached  88% of maximal function calls                   137.7461209516
 POWELL| Reached  90% of maximal function calls                   137.7461209516
 POWELL| Reached  92% of maximal function calls                   137.7418014944
 POWELL| Reached  94% of maximal function calls                   137.7410324969
 POWELL| Reached  96% of maximal function calls                   137.7410324969
 POWELL| Reached  98% of maximal function calls                   137.7406698585
 POWELL| Reached 100% of maximal function calls                   137.7406698585
 POWELL| Reached 100% of maximal function calls                   137.7373878808
 POWELL| Exceeding maximum number of steps
 POWELL| Reached 100% of maximal function calls                   137.7373878808
 POWELL| RMS average of variables                                   0.0002358582
 POWELL| Start optimization   4 of total 100               rhobeg =   0.00075295
 POWELL| Inital value of function                                 137.7373878808
 POWELL| Reached   6% of maximal function calls                   137.7373878808
 POWELL| Reached   8% of maximal function calls                   137.7373878808
 POWELL| Reached  10% of maximal function calls                   137.7373878808
 POWELL| Reached  12% of maximal function calls                   137.7373878808
 POWELL| Reached  14% of maximal function calls                   137.7373878808
 POWELL| Reached  16% of maximal function calls                   137.7373878808
 POWELL| Reached  18% of maximal function calls                   137.7373878808
 POWELL| Reached  20% of maximal function calls                   137.7373878808
 POWELL| Reached  22% of maximal function calls                   137.7373878808
 POWELL| Reached  24% of maximal function calls                   137.7373878808
 POWELL| Reached  26% of maximal function calls                   137.7373878808
 POWELL| Reached  28% of maximal function calls                   137.7373878808
 POWELL| Reached  30% of maximal function calls                   137.7373878808
 POWELL| Reached  32% of maximal function calls                   137.7373878808
 POWELL| Reached  34% of maximal function calls                   137.7373878808
 POWELL| Reached  36% of maximal function calls                   137.7373878808
 POWELL| Reached  38% of maximal function calls                   137.7373878808
 POWELL| Reached  40% of maximal function calls                   137.7373878808
 POWELL| Reached  42% of maximal function calls                   137.7373878808
 POWELL| Reached  44% of maximal function calls                   137.6818114221
 POWELL| Reached  46% of maximal function calls                   137.6818114221
 POWELL| Reached  48% of maximal function calls                   137.6818114221
 POWELL| Reached  50% of maximal function calls                   137.6818114221
 POWELL| Reached  52% of maximal function calls                   137.6818114221
 POWELL| Reached  54% of maximal function calls                   137.6818114221
 POWELL| Reached  56% of maximal function calls                   137.6818114221
 POWELL| Reached  57% of maximal function calls                   137.6818114221
 POWELL| Reached  60% of maximal function calls                   137.6818114221
 POWELL| Reached  62% of maximal function calls                   137.6818114221
 POWELL| Reached  64% of maximal function calls                   137.6818114221
 POWELL| Reached  66% of maximal function calls                   137.6818114221
 POWELL| Reached  68% of maximal function calls                   137.6665946754
 POWELL| Reached  70% of maximal function calls                   137.6659406359
 POWELL| Reached  72% of maximal function calls                   137.6498200835
 POWELL| Reached  74% of maximal function calls                   137.6387012719
 POWELL| Reached  76% of maximal function calls                   137.6385342852
 POWELL| Reached  78% of maximal function calls                   137.6384164076
 POWELL| Reached  80% of maximal function calls                   137.6382921912
 POWELL| Reached  82% of maximal function calls                   137.6382921912
 POWELL| Reached  84% of maximal function calls                   137.6382921912
 POWELL| Reached  86% of maximal function calls                   137.6382921912
 POWELL| Reached  88% of maximal function calls                   137.6382870411
 POWELL| Reached  90% of maximal function calls                   137.6382870411
 POWELL| Reached  92% of maximal function calls                   137.6381513819
 POWELL| Reached  94% of maximal function calls                   137.6378985373
 POWELL| Reached  96% of maximal function calls                   137.6378238283
 POWELL| Reached  98% of maximal function calls                   137.6378238283
 POWELL| Reached 100% of maximal function calls                   137.6378238283
 POWELL| Reached 100% of maximal function calls                   137.6375591168
 POWELL| Exceeding maximum number of steps
 POWELL| Reached 100% of maximal function calls                   137.6375591168
 POWELL| RMS average of variables                                   0.0002091970
 POWELL| Start optimization   5 of total 100               rhobeg =   0.00073789
 POWELL| Inital value of function                                 137.6375591168
 POWELL| Reached   6% of maximal function calls                   137.6375591168
 POWELL| Reached   8% of maximal function calls                   137.6375591168
 POWELL| Reached  10% of maximal function calls                   137.6375591168
 POWELL| Reached  12% of maximal function calls                   137.6375591168
 POWELL| Reached  14% of maximal function calls                   137.4156761748
 POWELL| Reached  16% of maximal function calls                   137.4156761748
 POWELL| Reached  18% of maximal function calls                   137.4156761748
 POWELL| Reached  20% of maximal function calls                   137.4156761748
 POWELL| Reached  22% of maximal function calls                   137.1207490613
 POWELL| Reached  24% of maximal function calls                   137.1207490613
 POWELL| Reached  26% of maximal function calls                   137.1207490613
 POWELL| Reached  28% of maximal function calls                   137.1207490613
 POWELL| Reached  30% of maximal function calls                   137.1207490613
 POWELL| Reached  32% of maximal function calls                   137.1207490613
 POWELL| Reached  34% of maximal function calls                   137.1207490613
 POWELL| Reached  36% of maximal function calls                   137.1207490613
 POWELL| Reached  38% of maximal function calls                   137.1207490613
 POWELL| Reached  40% of maximal function calls                   137.1207490613
 POWELL| Reached  42% of maximal function calls                   137.1207490613
 POWELL| Reached  44% of maximal function calls                   137.1207490613
 POWELL| Reached  46% of maximal function calls                   137.1207490613
 POWELL| Reached  48% of maximal function calls                   137.1207490613
 POWELL| Reached  50% of maximal function calls                   137.1207490613
 POWELL| Reached  52% of maximal function calls                   137.1207490613
 POWELL| Reached  54% of maximal function calls                   137.1207490613
 POWELL| Reached  56% of maximal function calls                   137.1207490613
 POWELL| Reached  57% of maximal function calls                   137.1207490613
 POWELL| Reached  60% of maximal function calls                   136.9683847894
 POWELL| Reached  62% of maximal function calls                   136.9683847894
 POWELL| Reached  64% of maximal function calls                   136.9683847894
 POWELL| Reached  66% of maximal function calls                   136.9683847894
 POWELL| Reached  68% of maximal function calls                   136.9683847894
 POWELL| Reached  70% of maximal function calls                   136.9676837906
 POWELL| Reached  72% of maximal function calls                   136.9671616934
 POWELL| Reached  74% of maximal function calls                   136.9671308734
 POWELL| Reached  76% of maximal function calls                   136.9671278036
 POWELL| Reached  78% of maximal function calls                   136.9664601555
 POWELL| Reached  80% of maximal function calls                   136.9664601555
 POWELL| Reached  82% of maximal function calls                   136.9664601555
 POWELL| Reached  84% of maximal function calls                   136.9664601555
 POWELL| Reached  86% of maximal function calls                   136.9664601555
 POWELL| Reached  88% of maximal function calls                   136.9664422050
 POWELL| Reached  90% of maximal function calls                   136.9664422050
 POWELL| Reached  92% of maximal function calls                   136.9664364570
 POWELL| Reached  94% of maximal function calls                   136.9664364570
 POWELL| Reached  96% of maximal function calls                   136.9664364570
 POWELL| Reached  98% of maximal function calls                   136.9664364570
 POWELL| Reached 100% of maximal function calls                   136.9664364570
 POWELL| Reached 100% of maximal function calls                   136.9664364570
 POWELL| Exceeding maximum number of steps
 POWELL| Reached 100% of maximal function calls                   136.9664364570
 POWELL| RMS average of variables                                   0.0002057766
 POWELL| Start optimization   6 of total 100               rhobeg =   0.00072314
 POWELL| Inital value of function                                 136.9664364570
 POWELL| Reached   6% of maximal function calls                   136.9664364570
 POWELL| Reached   8% of maximal function calls                   136.9664364570
 POWELL| Reached  10% of maximal function calls                   136.9664364570
 POWELL| Reached  12% of maximal function calls                   136.9664364570
 POWELL| Reached  14% of maximal function calls                   136.9664364570
 POWELL| Reached  16% of maximal function calls                   136.9664364570
 POWELL| Reached  18% of maximal function calls                   136.9664364570
 POWELL| Reached  20% of maximal function calls                   136.9664364570
 POWELL| Reached  22% of maximal function calls                   136.9664364570
 POWELL| Reached  24% of maximal function calls                   136.9664364570
 POWELL| Reached  26% of maximal function calls                   136.9664364570
 POWELL| Reached  28% of maximal function calls                   136.9664364570
 POWELL| Reached  30% of maximal function calls                   136.9664364570
 POWELL| Reached  32% of maximal function calls                   136.9664364570
 POWELL| Reached  34% of maximal function calls                   136.9664364570
 POWELL| Reached  36% of maximal function calls                   136.9664364570
 POWELL| Reached  38% of maximal function calls                   136.9664364570
 POWELL| Reached  40% of maximal function calls                   136.9664364570
 POWELL| Reached  42% of maximal function calls                   136.9664364570
 POWELL| Reached  44% of maximal function calls                   136.6541483436
 POWELL| Reached  46% of maximal function calls                   136.6541483436
 POWELL| Reached  48% of maximal function calls                   136.6541483436
 POWELL| Reached  50% of maximal function calls                   136.6541483436
 POWELL| Reached  52% of maximal function calls                   136.6541483436
 POWELL| Reached  54% of maximal function calls                   136.6541483436
 POWELL| Reached  56% of maximal function calls                   136.6541483436
 POWELL| Reached  57% of maximal function calls                   136.6452704204
 POWELL| Reached  60% of maximal function calls                   136.6452704204
 POWELL| Reached  62% of maximal function calls                   136.6452704204
 POWELL| Reached  64% of maximal function calls                   136.6452704204
 POWELL| Reached  66% of maximal function calls                   136.6452704204
 POWELL| Reached  68% of maximal function calls                   136.6301387321
 POWELL| Reached  70% of maximal function calls                   136.6293362996
 POWELL| Reached  72% of maximal function calls                   136.6188285782
 POWELL| Reached  74% of maximal function calls                   136.6117967887
 POWELL| Reached  76% of maximal function calls                   136.6116929137
 POWELL| Reached  78% of maximal function calls                   136.6116929137
 POWELL| Reached  80% of maximal function calls                   136.6116929137
 POWELL| Reached  82% of maximal function calls                   136.6116929137
 POWELL| Reached  84% of maximal function calls                   136.6115983725
 POWELL| Reached  86% of maximal function calls                   136.6115983725
 POWELL| Reached  88% of maximal function calls                   136.6114756363
 POWELL| Reached  90% of maximal function calls                   136.6114756363
 POWELL| Reached  92% of maximal function calls                   136.6114756363
 POWELL| Reached  94% of maximal function calls                   136.6114756363
 POWELL| Reached  96% of maximal function calls                   136.6114685631
 POWELL| Reached  98% of maximal function calls                   136.6114685631
 POWELL| Reached 100% of maximal function calls                   136.6112344382
 POWELL| Reached 100% of maximal function calls                   136.6107162528
 POWELL| Exceeding maximum number of steps
 POWELL| Reached 100% of maximal function calls                   136.6107162528
 POWELL| RMS average of variables                                   0.0002209680
 POWELL| Start optimization   7 of total 100               rhobeg =   0.00070867
 POWELL| Inital value of function                                 136.6107162528
 POWELL| Reached   6% of maximal function calls                   136.6107162528
 POWELL| Reached   8% of maximal function calls                   136.6107162528
 POWELL| Reached  10% of maximal function calls                   136.6107162528
 POWELL| Reached  12% of maximal function calls                   136.6107162528
 POWELL| Reached  14% of maximal function calls                   136.3408595785
 POWELL| Reached  16% of maximal function calls                   136.3408595785
 POWELL| Reached  18% of maximal function calls                   136.3408595785
 POWELL| Reached  20% of maximal function calls                   136.3408595785
 POWELL| Reached  22% of maximal function calls                   136.3408595785
 POWELL| Reached  24% of maximal function calls                   136.3408595785
 POWELL| Reached  26% of maximal function calls                   136.3408595785
 POWELL| Reached  28% of maximal function calls                   136.3408595785
 POWELL| Reached  30% of maximal function calls                   136.3408595785
 POWELL| Reached  32% of maximal function calls                   136.3408595785
 POWELL| Reached  34% of maximal function calls                   136.3408595785
 POWELL| Reached  36% of maximal function calls                   136.3408595785
 POWELL| Reached  38% of maximal function calls                   136.3408595785
 POWELL| Reached  40% of maximal function calls                   136.3408595785
 POWELL| Reached  42% of maximal function calls                   136.3408595785
 POWELL| Reached  44% of maximal function calls                   136.3408595785
 POWELL| Reached  46% of maximal function calls                   136.3408595785
 POWELL| Reached  48% of maximal function calls                   136.3408595785
 POWELL| Reached  50% of maximal function calls                   136.3408595785
 POWELL| Reached  52% of maximal function calls                   136.3408595785
 POWELL| Reached  54% of maximal function calls                   136.3408595785
 POWELL| Reached  56% of maximal function calls                   136.3408595785
 POWELL| Reached  57% of maximal function calls                   136.3408595785
 POWELL| Reached  60% of maximal function calls                   135.9767418117
 POWELL| Reached  62% of maximal function calls                   135.8707629399
 POWELL| Reached  64% of maximal function calls                   135.8707629399
 POWELL| Reached  66% of maximal function calls                   135.8699911621
 POWELL| Reached  68% of maximal function calls                   135.8657793587
 POWELL| Reached  70% of maximal function calls                   135.8656378963
 POWELL| Reached  72% of maximal function calls                   135.8656378963
 POWELL| Reached  74% of maximal function calls                   135.8656378963
 POWELL| Reached  76% of maximal function calls                   135.8655615070
 POWELL| Reached  78% of maximal function calls                   135.8655615070
 POWELL| Reached  80% of maximal function calls                   135.8655582655
 POWELL| Reached  82% of maximal function calls                   135.8649744376
 POWELL| Reached  84% of maximal function calls                   135.8649378827
 POWELL| Reached  86% of maximal function calls                   135.8649378827
 POWELL| Reached  88% of maximal function calls                   135.8648589123
 POWELL| Reached  90% of maximal function calls                   135.8648250204
 POWELL| Reached  92% of maximal function calls                   135.8648079818
 POWELL| Reached  94% of maximal function calls                   135.8648079818
 POWELL| Reached  96% of maximal function calls                   135.8648079818
 POWELL| Reached  98% of maximal function calls                   135.8648079818
 POWELL| Reached 100% of maximal function calls                   135.8648079818
 POWELL| Reached 100% of maximal function calls                   135.8640867562
 POWELL| Exceeding maximum number of steps
 POWELL| Reached 100% of maximal function calls                   135.8640867562
 POWELL| RMS average of variables                                   0.0002136760
 POWELL| Start optimization   8 of total 100               rhobeg =   0.00069450
 POWELL| Inital value of function                                 135.8640867562
 POWELL| Reached   6% of maximal function calls                   135.8640867562
 POWELL| Reached   8% of maximal function calls                   135.8640867562
 POWELL| Reached  10% of maximal function calls                   135.8640867562
 POWELL| Reached  12% of maximal function calls                   135.8640867562
 POWELL| Reached  14% of maximal function calls                   135.8640867562
 POWELL| Reached  16% of maximal function calls                   135.8640867562
 POWELL| Reached  18% of maximal function calls                   135.8640867562
 POWELL| Reached  20% of maximal function calls                   135.8640867562
 POWELL| Reached  22% of maximal function calls                   135.8640867562
 POWELL| Reached  24% of maximal function calls                   135.8640867562
 POWELL| Reached  26% of maximal function calls                   135.8640867562
 POWELL| Reached  28% of maximal function calls                   135.8640867562
 POWELL| Reached  30% of maximal function calls                   135.8640867562
 POWELL| Reached  32% of maximal function calls                   135.8640867562
 POWELL| Reached  34% of maximal function calls                   135.8640867562
 POWELL| Reached  36% of maximal function calls                   135.8640867562
 POWELL| Reached  38% of maximal function calls                   135.8640867562
 POWELL| Reached  40% of maximal function calls                   135.8640867562
 POWELL| Reached  42% of maximal function calls                   135.8640867562
 POWELL| Reached  44% of maximal function calls                   135.6662083349
 POWELL| Reached  46% of maximal function calls                   135.6662083349
 POWELL| Reached  48% of maximal function calls                   135.6662083349
 POWELL| Reached  50% of maximal function calls                   135.6662083349
 POWELL| Reached  52% of maximal function calls                   135.6662083349
 POWELL| Reached  54% of maximal function calls                   135.6662083349
 POWELL| Reached  56% of maximal function calls                   135.6662083349
 POWELL| Reached  57% of maximal function calls                   135.6662083349
 POWELL| Reached  60% of maximal function calls                   135.6662083349
 POWELL| Reached  62% of maximal function calls                   135.6662083349
 POWELL| Reached  64% of maximal function calls                   135.6662083349
 POWELL| Reached  66% of maximal function calls                   135.6662083349
 POWELL| Reached  68% of maximal function calls                   135.6539251308
 POWELL| Reached  70% of maximal function calls                   135.6532757988
 POWELL| Reached  72% of maximal function calls                   135.6449319202
 POWELL| Reached  74% of maximal function calls                   135.6393375753
 POWELL| Reached  76% of maximal function calls                   135.6393375753
 POWELL| Reached  78% of maximal function calls                   135.6393375753
 POWELL| Reached  80% of maximal function calls                   135.6392263180
 POWELL| Reached  82% of maximal function calls                   135.6392054784
 POWELL| Reached  84% of maximal function calls                   135.6392054784
 POWELL| Reached  86% of maximal function calls                   135.6392054784
 POWELL| Reached  88% of maximal function calls                   135.6392054784
 POWELL| Reached  90% of maximal function calls                   135.6392054784
 POWELL| Reached  92% of maximal function calls                   135.6002422414
 POWELL| Reached  94% of maximal function calls                   135.6002422414
 POWELL| Reached  96% of maximal function calls                   135.6002422414
 POWELL| Reached  98% of maximal function calls                   135.6002422414
 POWELL| Reached 100% of maximal function calls                   135.6002277294
 POWELL| Reached 100% of maximal function calls                   135.6000694799
 POWELL| Exceeding maximum number of steps
 POWELL| Reached 100% of maximal function calls                   135.6000694799
 POWELL| RMS average of variables                                   0.0001929152
 POWELL| Start optimization   9 of total 100               rhobeg =   0.00068061
 POWELL| Inital value of function                                 135.6000694799
 POWELL| Reached   6% of maximal function calls                   135.6000694799
 POWELL| Reached   8% of maximal function calls                   135.6000694799
 POWELL| Reached  10% of maximal function calls                   135.6000694799
 POWELL| Reached  12% of maximal function calls                   135.6000694799
 POWELL| Reached  14% of maximal function calls                   135.4759105241
 POWELL| Reached  16% of maximal function calls                   135.4759105241
 POWELL| Reached  18% of maximal function calls                   135.4759105241
 POWELL| Reached  20% of maximal function calls                   135.4759105241
 POWELL| Reached  22% of maximal function calls                   135.4652012835
 POWELL| Reached  24% of maximal function calls                   135.4652012835
 POWELL| Reached  26% of maximal function calls                   135.4652012835
 POWELL| Reached  28% of maximal function calls                   135.4652012835
 POWELL| Reached  30% of maximal function calls                   135.4652012835
 POWELL| Reached  32% of maximal function calls                   135.4652012835
 POWELL| Reached  34% of maximal function calls                   135.4652012835
 POWELL| Reached  36% of maximal function calls                   135.4652012835
 POWELL| Reached  38% of maximal function calls                   135.4652012835
 POWELL| Reached  40% of maximal function calls                   135.4652012835
 POWELL| Reached  42% of maximal function calls                   135.4652012835
 POWELL| Reached  44% of maximal function calls                   135.4652012835
 POWELL| Reached  46% of maximal function calls                   135.4652012835
 POWELL| Reached  48% of maximal function calls                   135.4652012835
 POWELL| Reached  50% of maximal function calls                   135.4652012835
 POWELL| Reached  52% of maximal function calls                   135.4652012835
 POWELL| Reached  54% of maximal function calls                   135.4652012835
 POWELL| Reached  56% of maximal function calls                   135.4652012835
 POWELL| Reached  57% of maximal function calls                   135.4652012835
 POWELL| Reached  60% of maximal function calls                   135.2892197853
 POWELL| Reached  62% of maximal function calls                   135.2892197853
 POWELL| Reached  64% of maximal function calls                   135.2891938834
 POWELL| Reached  66% of maximal function calls                   135.2891938834
 POWELL| Reached  68% of maximal function calls                   135.2886670394
 POWELL| Reached  70% of maximal function calls                   135.2886670394
 POWELL| Reached  72% of maximal function calls                   135.2886670394
 POWELL| Reached  74% of maximal function calls                   135.2881664599
 POWELL| Reached  76% of maximal function calls                   135.2881606719
 POWELL| Reached  78% of maximal function calls                   135.2881606719
 POWELL| Reached  80% of maximal function calls                   135.2881606719
 POWELL| Reached  82% of maximal function calls                   135.2881606719
 POWELL| Reached  84% of maximal function calls                   135.2778789923
 POWELL| Reached  86% of maximal function calls                   135.2778789923
 POWELL| Reached  88% of maximal function calls                   135.2778789923
 POWELL| Reached  90% of maximal function calls                   135.2778753300
 POWELL| Reached  92% of maximal function calls                   135.2778753300
 POWELL| Reached  94% of maximal function calls                   135.2778753300
 POWELL| Reached  96% of maximal function calls                   135.2778753300
 POWELL| Reached  98% of maximal function calls                   135.2778753300
 POWELL| Reached 100% of maximal function calls                   135.2778753300
 POWELL| Reached 100% of maximal function calls                   135.2778753300
 POWELL| Exceeding maximum number of steps
 POWELL| Reached 100% of maximal function calls                   135.2778753300
 POWELL| RMS average of variables                                   0.0001897429
 POWELL| Start optimization  10 of total 100               rhobeg =   0.00066700
 POWELL| Inital value of function                                 135.2778753300
 POWELL| Reached   6% of maximal function calls                   135.2778753300
 POWELL| Reached   8% of maximal function calls                   135.2778753300
 POWELL| Reached  10% of maximal function calls                   135.2778753300
 POWELL| Reached  12% of maximal function calls                   135.2778753300
 POWELL| Reached  14% of maximal function calls                   135.2778753300
 POWELL| Reached  16% of maximal function calls                   135.2778753300
 POWELL| Reached  18% of maximal function calls                   135.2778753300
 POWELL| Reached  20% of maximal function calls                   135.2778753300
 POWELL| Reached  22% of maximal function calls                   135.2778753300
 POWELL| Reached  24% of maximal function calls                   135.2778753300
 POWELL| Reached  26% of maximal function calls                   135.2778753300
 POWELL| Reached  28% of maximal function calls                   135.2778753300
 POWELL| Reached  30% of maximal function calls                   135.2778753300
 POWELL| Reached  32% of maximal function calls                   135.2778753300
 POWELL| Reached  34% of maximal function calls                   135.2778753300
 POWELL| Reached  36% of maximal function calls                   135.2778753300
 POWELL| Reached  38% of maximal function calls                   135.2778753300
 POWELL| Reached  40% of maximal function calls                   135.2778753300
 POWELL| Reached  42% of maximal function calls                   135.2778753300
 POWELL| Reached  44% of maximal function calls                   134.8793921052
 POWELL| Reached  46% of maximal function calls                   134.8793921052
 POWELL| Reached  48% of maximal function calls                   134.8793921052
 POWELL| Reached  50% of maximal function calls                   134.8793921052
 POWELL| Reached  52% of maximal function calls                   134.8793921052
 POWELL| Reached  54% of maximal function calls                   134.8793921052
 POWELL| Reached  56% of maximal function calls                   134.8793921052
 POWELL| Reached  57% of maximal function calls                   134.8578700723
 POWELL| Reached  60% of maximal function calls                   134.8578700723
 POWELL| Reached  62% of maximal function calls                   134.8578700723
 POWELL| Reached  64% of maximal function calls                   134.8578700723
 POWELL| Reached  66% of maximal function calls                   134.8578700723
 POWELL| Reached  68% of maximal function calls                   134.8456271678
 POWELL| Reached  70% of maximal function calls                   134.8448531444
 POWELL| Reached  72% of maximal function calls                   134.8407346255
 POWELL| Reached  74% of maximal function calls                   134.8381384998
 POWELL| Reached  76% of maximal function calls                   134.8379218611
 POWELL| Reached  78% of maximal function calls                   134.8379218611
 POWELL| Reached  80% of maximal function calls                   134.8379218611
 POWELL| Reached  82% of maximal function calls                   134.8378698360
 POWELL| Reached  84% of maximal function calls                   134.8378698360
 POWELL| Reached  86% of maximal function calls                   134.8378698360
 POWELL| Reached  88% of maximal function calls                   134.8378698360
 POWELL| Reached  90% of maximal function calls                   134.8378519289
 POWELL| Reached  92% of maximal function calls                   134.8378519289
 POWELL| Reached  94% of maximal function calls                   134.8378377843
 POWELL| Reached  96% of maximal function calls                   134.8378377843
 POWELL| Reached  98% of maximal function calls                   134.8378244926
 POWELL| Reached 100% of maximal function calls                   134.8378244926
 POWELL| Reached 100% of maximal function calls                   134.8378244926
 POWELL| Exceeding maximum number of steps
 POWELL| Reached 100% of maximal function calls                   134.8378244926
 POWELL| RMS average of variables                                   0.0002037894
 POWELL| Start optimization  11 of total 100               rhobeg =   0.00065366
 POWELL| Inital value of function                                 134.8378244926
 POWELL| Reached   6% of maximal function calls                   134.8378244926
 POWELL| Reached   8% of maximal function calls                   134.8378244926
 POWELL| Reached  10% of maximal function calls                   134.8378244926
 POWELL| Reached  12% of maximal function calls                   134.8378244926
 POWELL| Reached  14% of maximal function calls                   134.6389406622
 POWELL| Reached  16% of maximal function calls                   134.6389406622
 POWELL| Reached  18% of maximal function calls                   134.6389406622
 POWELL| Reached  20% of maximal function calls                   134.6389406622
 POWELL| Reached  22% of maximal function calls                   134.6389406622
 POWELL| Reached  24% of maximal function calls                   134.6389406622
 POWELL| Reached  26% of maximal function calls                   134.6389406622
 POWELL| Reached  28% of maximal function calls                   134.6389406622
 POWELL| Reached  30% of maximal function calls                   134.6389406622
 POWELL| Reached  32% of maximal function calls                   134.6389406622
 POWELL| Reached  34% of maximal function calls                   134.6389406622
 POWELL| Reached  36% of maximal function calls                   134.6389406622
 POWELL| Reached  38% of maximal function calls                   134.6389406622
 POWELL| Reached  40% of maximal function calls                   134.6389406622
 POWELL| Reached  42% of maximal function calls                   134.6389406622
 POWELL| Reached  44% of maximal function calls                   134.6389406622
 POWELL| Reached  46% of maximal function calls                   134.6389406622
 POWELL| Reached  48% of maximal function calls                   134.6389406622
 POWELL| Reached  50% of maximal function calls                   134.6389406622
 POWELL| Reached  52% of maximal function calls                   134.6389406622
 POWELL| Reached  54% of maximal function calls                   134.6389406622
 POWELL| Reached  56% of maximal function calls                   134.6389406622
 POWELL| Reached  57% of maximal function calls                   134.6389406622
 POWELL| Reached  60% of maximal function calls                   134.2905972401
 POWELL| Reached  62% of maximal function calls                   134.1703168452
 POWELL| Reached  64% of maximal function calls                   134.1701036006
 POWELL| Reached  66% of maximal function calls                   134.1666860852
 POWELL| Reached  68% of maximal function calls                   134.1652505990
 POWELL| Reached  70% of maximal function calls                   134.1647640892
 POWELL| Reached  72% of maximal function calls                   134.1647640892
 POWELL| Reached  74% of maximal function calls                   134.1647640892
 POWELL| Reached  76% of maximal function calls                   134.1647640892
 POWELL| Reached  78% of maximal function calls                   134.1647640892
 POWELL| Reached  80% of maximal function calls                   134.1646901312
 POWELL| Reached  82% of maximal function calls                   134.1646901312
 POWELL| Reached  84% of maximal function calls                   134.1646901312
 POWELL| Reached  86% of maximal function calls                   134.1646901312
 POWELL| Reached  88% of maximal function calls                   134.1646901312
 POWELL| Reached  90% of maximal function calls                   134.1646901312
 POWELL| Reached  92% of maximal function calls                   134.1646901312
 POWELL| Reached  94% of maximal function calls                   134.1644698498
 POWELL| Reached  96% of maximal function calls                   134.1644698498
 POWELL| Reached  98% of maximal function calls                   134.1644698498
 POWELL| Reached 100% of maximal function calls                   134.1644698498
 POWELL| Reached 100% of maximal function calls                   134.1644698498
 POWELL| Exceeding maximum number of steps
 POWELL| Reached 100% of maximal function calls                   134.1644698498
 POWELL| RMS average of variables                                   0.0001971833
 POWELL| Start optimization  12 of total 100               rhobeg =   0.00064059
 POWELL| Inital value of function                                 134.1644698498
 POWELL| Reached   6% of maximal function calls                   134.1644698498
 POWELL| Reached   8% of maximal function calls                   134.1644698498
 POWELL| Reached  10% of maximal function calls                   134.1644698498
 POWELL| Reached  12% of maximal function calls                   134.1644698498
 POWELL| Reached  14% of maximal function calls                   134.1644698498
 POWELL| Reached  16% of maximal function calls                   134.1644698498
 POWELL| Reached  18% of maximal function calls                   134.1644698498
 POWELL| Reached  20% of maximal function calls                   134.1644698498
 POWELL| Reached  22% of maximal function calls                   134.1644698498
 POWELL| Reached  24% of maximal function calls                   134.1644698498
 POWELL| Reached  26% of maximal function calls                   134.1644698498
 POWELL| Reached  28% of maximal function calls                   134.1644698498
 POWELL| Reached  30% of maximal function calls                   134.1644698498
 POWELL| Reached  32% of maximal function calls                   134.1644698498
 POWELL| Reached  34% of maximal function calls                   134.1644698498
 POWELL| Reached  36% of maximal function calls                   134.1644698498
 POWELL| Reached  38% of maximal function calls                   134.1644698498
 POWELL| Reached  40% of maximal function calls                   134.1644698498
 POWELL| Reached  42% of maximal function calls                   134.1644698498
 POWELL| Reached  44% of maximal function calls                   133.8525308132
 POWELL| Reached  46% of maximal function calls                   133.8525308132
 POWELL| Reached  48% of maximal function calls                   133.8525308132
 POWELL| Reached  50% of maximal function calls                   133.8525308132
 POWELL| Reached  52% of maximal function calls                   133.8525308132
 POWELL| Reached  54% of maximal function calls                   133.8525308132
 POWELL| Reached  56% of maximal function calls                   133.8525308132
 POWELL| Reached  57% of maximal function calls                   133.8388354994
 POWELL| Reached  60% of maximal function calls                   133.8388354994
 POWELL| Reached  62% of maximal function calls                   133.8388354994
 POWELL| Reached  64% of maximal function calls                   133.8388354994
 POWELL| Reached  66% of maximal function calls                   133.8388354994
 POWELL| Reached  68% of maximal function calls                   133.8282808671
 POWELL| Reached  70% of maximal function calls                   133.8276565953
 POWELL| Reached  72% of maximal function calls                   133.8237363279
 POWELL| Reached  74% of maximal function calls                   133.8212969783
 POWELL| Reached  76% of maximal function calls                   133.8212235119
 POWELL| Reached  78% of maximal function calls                   133.8211590637
 POWELL| Reached  80% of maximal function calls                   133.8211590637
 POWELL| Reached  82% of maximal function calls                   133.8211590637
 POWELL| Reached  84% of maximal function calls                   133.8211590637
 POWELL| Reached  86% of maximal function calls                   133.8211590637
 POWELL| Reached  88% of maximal function calls                   133.8209627945
 POWELL| Reached  90% of maximal function calls                   133.8209496499
 POWELL| Reached  92% of maximal function calls                   133.8209496499
 POWELL| Reached  94% of maximal function calls                   133.8209496499
 POWELL| Reached  96% of maximal function calls                   133.8209496499
 POWELL| Reached  98% of maximal function calls                   133.8209496499
 POWELL| Reached 100% of maximal function calls                   133.8209145452
 POWELL| Reached 100% of maximal function calls                   133.8209145452
 POWELL| Exceeding maximum number of steps
 POWELL| Reached 100% of maximal function calls                   133.8209145452
 POWELL| RMS average of variables                                   0.0001957289
 POWELL| Start optimization  13 of total 100               rhobeg =   0.00062777
 POWELL| Inital value of function                                 133.8209145452
 POWELL| Reached   6% of maximal function calls                   133.8209145452
 POWELL| Reached   8% of maximal function calls                   133.8209145452
 POWELL| Reached  10% of maximal function calls                   133.8209145452
 POWELL| Reached  12% of maximal function calls                   133.8209145452
 POWELL| Reached  14% of maximal function calls                   133.7135476635
 POWELL| Reached  16% of maximal function calls                   133.7135476635
 POWELL| Reached  18% of maximal function calls                   133.7135476635
 POWELL| Reached  20% of maximal function calls                   133.7135476635
 POWELL| Reached  22% of maximal function calls                   133.7135476635
 POWELL| Reached  24% of maximal function calls                   133.7135476635
 POWELL| Reached  26% of maximal function calls                   133.7135476635
 POWELL| Reached  28% of maximal function calls                   133.7135476635
 POWELL| Reached  30% of maximal function calls                   133.7135476635
 POWELL| Reached  32% of maximal function calls                   133.7135476635
 POWELL| Reached  34% of maximal function calls                   133.7135476635
 POWELL| Reached  36% of maximal function calls                   133.7135476635
 POWELL| Reached  38% of maximal function calls                   133.7135476635
 POWELL| Reached  40% of maximal function calls                   133.7135476635
 POWELL| Reached  42% of maximal function calls                   133.7135476635
 POWELL| Reached  44% of maximal function calls                   133.7135476635
 POWELL| Reached  46% of maximal function calls                   133.7135476635
 POWELL| Reached  48% of maximal function calls                   133.7135476635
 POWELL| Reached  50% of maximal function calls                   133.7135476635
 POWELL| Reached  52% of maximal function calls                   133.7135476635
 POWELL| Reached  54% of maximal function calls                   133.7135476635
 POWELL| Reached  56% of maximal function calls                   133.7135476635
 POWELL| Reached  57% of maximal function calls                   133.7135476635
 POWELL| Reached  60% of maximal function calls                   133.3594775131
 POWELL| Reached  62% of maximal function calls                   133.2289763326
 POWELL| Reached  64% of maximal function calls                   133.2285954139
 POWELL| Reached  66% of maximal function calls                   133.2254785030
 POWELL| Reached  68% of maximal function calls                   133.2232329538
 POWELL| Reached  70% of maximal function calls                   133.2227599223
 POWELL| Reached  72% of maximal function calls                   133.2227599223
 POWELL| Reached  74% of maximal function calls                   133.2227599223
 POWELL| Reached  76% of maximal function calls                   133.2227599223
 POWELL| Reached  78% of maximal function calls                   133.2227599223
 POWELL| Reached  80% of maximal function calls                   133.2227599223
 POWELL| Reached  82% of maximal function calls                   133.2227333951
 POWELL| Reached  84% of maximal function calls                   133.2227333951
 POWELL| Reached  86% of maximal function calls                   133.2226539888
 POWELL| Reached  88% of maximal function calls                   133.2226539888
 POWELL| Reached  90% of maximal function calls                   133.2223347246
 POWELL| Reached  92% of maximal function calls                   133.2223347246
 POWELL| Reached  94% of maximal function calls                   133.2223222252
 POWELL| Reached  96% of maximal function calls                   133.2223222252
 POWELL| Reached  98% of maximal function calls                   133.2223222252
 POWELL| Reached 100% of maximal function calls                   133.2223006103
 POWELL| Reached 100% of maximal function calls                   133.2222668187
 POWELL| Exceeding maximum number of steps
 POWELL| Reached 100% of maximal function calls                   133.2222668187
 POWELL| RMS average of variables                                   0.0001893691
 POWELL| Start optimization  14 of total 100               rhobeg =   0.00061522
 POWELL| Inital value of function                                 133.2222668187
 POWELL| Reached   6% of maximal function calls                   133.2222668187
 POWELL| Reached   8% of maximal function calls                   133.2222668187
 POWELL| Reached  10% of maximal function calls                   133.2222668187
 POWELL| Reached  12% of maximal function calls                   133.2222668187
 POWELL| Reached  14% of maximal function calls                   133.2222668187
 POWELL| Reached  16% of maximal function calls                   133.2222668187
 POWELL| Reached  18% of maximal function calls                   133.2222668187
 POWELL| Reached  20% of maximal function calls                   133.2222668187
 POWELL| Reached  22% of maximal function calls                   133.2222668187
 POWELL| Reached  24% of maximal function calls                   133.2222668187
 POWELL| Reached  26% of maximal function calls                   133.2222668187
 POWELL| Reached  28% of maximal function calls                   133.2222668187
 POWELL| Reached  30% of maximal function calls                   133.2222668187
 POWELL| Reached  32% of maximal function calls                   133.2222668187
 POWELL| Reached  34% of maximal function calls                   133.2222668187
 POWELL| Reached  36% of maximal function calls                   133.2222668187
 POWELL| Reached  38% of maximal function calls                   133.2222668187
 POWELL| Reached  40% of maximal function calls                   133.2222668187
 POWELL| Reached  42% of maximal function calls                   133.2222668187
 POWELL| Reached  44% of maximal function calls                   132.9932073060
 POWELL| Reached  46% of maximal function calls                   132.9932073060
 POWELL| Reached  48% of maximal function calls                   132.9932073060
 POWELL| Reached  50% of maximal function calls                   132.9932073060
 POWELL| Reached  52% of maximal function calls                   132.9932073060
 POWELL| Reached  54% of maximal function calls                   132.9932073060
 POWELL| Reached  56% of maximal function calls                   132.9932073060
 POWELL| Reached  57% of maximal function calls                   132.9864457391
 POWELL| Reached  60% of maximal function calls                   132.9864457391
 POWELL| Reached  62% of maximal function calls                   132.9864457391
 POWELL| Reached  64% of maximal function calls                   132.9864457391
 POWELL| Reached  66% of maximal function calls                   132.9864457391
 POWELL| Reached  68% of maximal function calls                   132.9774552547
 POWELL| Reached  70% of maximal function calls                   132.9769672134
 POWELL| Reached  72% of maximal function calls                   132.9732521703
 POWELL| Reached  74% of maximal function calls                   132.9709717959
 POWELL| Reached  76% of maximal function calls                   132.9708797388
 POWELL| Reached  78% of maximal function calls                   132.9708067775
 POWELL| Reached  80% of maximal function calls                   132.9708067775
 POWELL| Reached  82% of maximal function calls                   132.9707706285
 POWELL| Reached  84% of maximal function calls                   132.9707706285
 POWELL| Reached  86% of maximal function calls                   132.9707706285
 POWELL| Reached  88% of maximal function calls                   132.9707706285
 POWELL| Reached  90% of maximal function calls                   132.9707706285
 POWELL| Reached  92% of maximal function calls                   132.9707706285
 POWELL| Reached  94% of maximal function calls                   132.9707706285
 POWELL| Reached  96% of maximal function calls                   132.9707706285
 POWELL| Reached  98% of maximal function calls                   132.9707706285
 POWELL| Reached 100% of maximal function calls                   132.9707175422
 POWELL| Reached 100% of maximal function calls                   132.9707175422
 POWELL| Exceeding maximum number of steps
 POWELL| Reached 100% of maximal function calls                   132.9707175422
 POWELL| RMS average of variables                                   0.0001879735
 POWELL| Start optimization  15 of total 100               rhobeg =   0.00060291
 POWELL| Inital value of function                                 132.9707175422
 POWELL| Reached   6% of maximal function calls                   132.9707175422
 POWELL| Reached   8% of maximal function calls                   132.9707175422
 POWELL| Reached  10% of maximal function calls                   132.9707175422
 POWELL| Reached  12% of maximal function calls                   132.9707175422
 POWELL| Reached  14% of maximal function calls                   132.9494698816
 POWELL| Reached  16% of maximal function calls                   132.9494698816
 POWELL| Reached  18% of maximal function calls                   132.9494698816
 POWELL| Reached  20% of maximal function calls                   132.9494698816
 POWELL| Reached  22% of maximal function calls                   132.8149392518
 POWELL| Reached  24% of maximal function calls                   132.8149392518
 POWELL| Reached  26% of maximal function calls                   132.8149392518
 POWELL| Reached  28% of maximal function calls                   132.8149392518
 POWELL| Reached  30% of maximal function calls                   132.8149392518
 POWELL| Reached  32% of maximal function calls                   132.8149392518
 POWELL| Reached  34% of maximal function calls                   132.8149392518
 POWELL| Reached  36% of maximal function calls                   132.8149392518
 POWELL| Reached  38% of maximal function calls                   132.8149392518
 POWELL| Reached  40% of maximal function calls                   132.8149392518
 POWELL| Reached  42% of maximal function calls                   132.8149392518
 POWELL| Reached  44% of maximal function calls                   132.8149392518
 POWELL| Reached  46% of maximal function calls                   132.8149392518
 POWELL| Reached  48% of maximal function calls                   132.8149392518
 POWELL| Reached  50% of maximal function calls                   132.8149392518
 POWELL| Reached  52% of maximal function calls                   132.8149392518
 POWELL| Reached  54% of maximal function calls                   132.8149392518
 POWELL| Reached  56% of maximal function calls                   132.8149392518
 POWELL| Reached  57% of maximal function calls                   132.8149392518
 POWELL| Reached  60% of maximal function calls                   132.6284800011
 POWELL| Reached  62% of maximal function calls                   132.6268130658
 POWELL| Reached  64% of maximal function calls                   132.6268130658
 POWELL| Reached  66% of maximal function calls                   132.6268130658
 POWELL| Reached  68% of maximal function calls                   132.6268130658
 POWELL| Reached  70% of maximal function calls                   132.6261370872
 POWELL| Reached  72% of maximal function calls                   132.6256849276
 POWELL| Reached  74% of maximal function calls                   132.6256171575
 POWELL| Reached  76% of maximal function calls                   132.6255999963
 POWELL| Reached  78% of maximal function calls                   132.6250953329
 POWELL| Reached  80% of maximal function calls                   132.6250953329
 POWELL| Reached  82% of maximal function calls                   132.6250953329
 POWELL| Reached  84% of maximal function calls                   132.6250953329
 POWELL| Reached  86% of maximal function calls                   132.6250951833
 POWELL| Reached  88% of maximal function calls                   132.6250892413
 POWELL| Reached  90% of maximal function calls                   132.6250892413
 POWELL| Reached  92% of maximal function calls                   132.6250881428
 POWELL| Reached  94% of maximal function calls                   132.6250835335
 POWELL| Reached  96% of maximal function calls                   132.6250818267
 POWELL| Reached  98% of maximal function calls                   132.6250818267
 POWELL| Reached 100% of maximal function calls                   132.6250765217
 POWELL| Reached 100% of maximal function calls                   132.6250765217
 POWELL| Exceeding maximum number of steps
 POWELL| Reached 100% of maximal function calls                   132.6250765217
 POWELL| RMS average of variables                                   0.0001806410
 POWELL| Start optimization  16 of total 100               rhobeg =   0.00059086
 POWELL| Inital value of function                                 132.6250765217
 POWELL| Reached   6% of maximal function calls                   132.6250765217
 POWELL| Reached   8% of maximal function calls                   132.6250765217
 POWELL| Reached  10% of maximal function calls                   132.6250765217
 POWELL| Reached  12% of maximal function calls                   132.6250765217
 POWELL| Reached  14% of maximal function calls                   132.6250765217
 POWELL| Reached  16% of maximal function calls                   132.6250765217
 POWELL| Reached  18% of maximal function calls                   132.6250765217
 POWELL| Reached  20% of maximal function calls                   132.6250765217
 POWELL| Reached  22% of maximal function calls                   132.6250765217
 POWELL| Reached  24% of maximal function calls                   132.6250765217
 POWELL| Reached  26% of maximal function calls                   132.6250765217
 POWELL| Reached  28% of maximal function calls                   132.6250765217
 POWELL| Reached  30% of maximal function calls                   132.6250765217
 POWELL| Reached  32% of maximal function calls                   132.6250765217
 POWELL| Reached  34% of maximal function calls                   132.6113418594
 POWELL| Reached  36% of maximal function calls                   132.6113418594
 POWELL| Reached  38% of maximal function calls                   132.6113418594
 POWELL| Reached  40% of maximal function calls                   132.6113418594
 POWELL| Reached  42% of maximal function calls                   132.6113418594
 POWELL| Reached  44% of maximal function calls                   132.3754390263
 POWELL| Reached  46% of maximal function calls                   132.3754390263
 POWELL| Reached  48% of maximal function calls                   132.3754390263
 POWELL| Reached  50% of maximal function calls                   132.3754390263
 POWELL| Reached  52% of maximal function calls                   132.3754390263
 POWELL| Reached  54% of maximal function calls                   132.3754390263
 POWELL| Reached  56% of maximal function calls                   132.3754390263
[...]
 POWELL| RMS average of variables                                   0.0000351461
 POWELL| Start optimization  98 of total 100               rhobeg =   0.00011272
 POWELL| Inital value of function                                 106.8117653781
 POWELL| Reached   6% of maximal function calls                   106.8117653781
 POWELL| Reached   8% of maximal function calls                   106.8117653781
 POWELL| Reached  10% of maximal function calls                   106.8117653781
 POWELL| Reached  12% of maximal function calls                   106.8117653781
 POWELL| Reached  14% of maximal function calls                   106.6882254118
 POWELL| Reached  16% of maximal function calls                   106.6882254118
 POWELL| Reached  18% of maximal function calls                   106.6882254118
 POWELL| Reached  20% of maximal function calls                   106.6882254118
 POWELL| Reached  22% of maximal function calls                   106.6179070060
 POWELL| Reached  24% of maximal function calls                   106.6179070060
 POWELL| Reached  26% of maximal function calls                   106.6179070060
 POWELL| Reached  28% of maximal function calls                   106.6179070060
 POWELL| Reached  30% of maximal function calls                   106.6179070060
 POWELL| Reached  32% of maximal function calls                   106.6179070060
 POWELL| Reached  34% of maximal function calls                   106.6179070060
 POWELL| Reached  36% of maximal function calls                   106.6179070060
 POWELL| Reached  38% of maximal function calls                   106.6179070060
 POWELL| Reached  40% of maximal function calls                   106.6179070060
 POWELL| Reached  42% of maximal function calls                   106.6179070060
 POWELL| Reached  44% of maximal function calls                   106.6179070060
 POWELL| Reached  46% of maximal function calls                   106.6179070060
 POWELL| Reached  48% of maximal function calls                   106.6179070060
 POWELL| Reached  50% of maximal function calls                   106.6179070060
 POWELL| Reached  52% of maximal function calls                   106.6179070060
 POWELL| Reached  54% of maximal function calls                   106.6179070060
 POWELL| Reached  56% of maximal function calls                   106.6179070060
 POWELL| Reached  57% of maximal function calls                   106.6013872405
 POWELL| Reached  60% of maximal function calls                   106.6013872405
 POWELL| Reached  62% of maximal function calls                   106.6013872405
 POWELL| Reached  64% of maximal function calls                   106.6013872405
 POWELL| Reached  66% of maximal function calls                   106.6013872405
 POWELL| Reached  68% of maximal function calls                   106.6002993319
 POWELL| Reached  70% of maximal function calls                   106.6001048872
 POWELL| Reached  72% of maximal function calls                   106.5996259858
 POWELL| Reached  74% of maximal function calls                   106.5991839807
 POWELL| Reached  76% of maximal function calls                   106.5991839807
 POWELL| Reached  78% of maximal function calls                   106.5991839807
 POWELL| Reached  80% of maximal function calls                   106.5991839807
 POWELL| Reached  82% of maximal function calls                   106.5991839807
 POWELL| Reached  84% of maximal function calls                   106.5991839807
 POWELL| Reached  86% of maximal function calls                   106.5991839807
 POWELL| Reached  88% of maximal function calls                   106.5991839807
 POWELL| Reached  90% of maximal function calls                   106.5991839807
 POWELL| Reached  92% of maximal function calls                   106.5991693948
 POWELL| Reached  94% of maximal function calls                   106.5991621832
 POWELL| Reached  96% of maximal function calls                   106.5991591536
 POWELL| Reached  98% of maximal function calls                   106.5991591536
 POWELL| Reached 100% of maximal function calls                   106.5991555941
 POWELL| Reached 100% of maximal function calls                   106.5991555941
 POWELL| Exceeding maximum number of steps
 POWELL| Reached 100% of maximal function calls                   106.5991555941
 POWELL| RMS average of variables                                   0.0000344398
 POWELL| Start optimization  99 of total 100               rhobeg =   0.00011047
 POWELL| Inital value of function                                 106.5991555941
 POWELL| Reached   6% of maximal function calls                   106.5991555941
 POWELL| Reached   8% of maximal function calls                   106.5991555941
 POWELL| Reached  10% of maximal function calls                   106.5991555941
 POWELL| Reached  12% of maximal function calls                   106.5991555941
 POWELL| Reached  14% of maximal function calls                   106.5223100412
 POWELL| Reached  16% of maximal function calls                   106.5223100412
 POWELL| Reached  18% of maximal function calls                   106.5223100412
 POWELL| Reached  20% of maximal function calls                   106.5223100412
 POWELL| Reached  22% of maximal function calls                   106.4669502173
 POWELL| Reached  24% of maximal function calls                   106.4669502173
 POWELL| Reached  26% of maximal function calls                   106.4669502173
 POWELL| Reached  28% of maximal function calls                   106.4669502173
 POWELL| Reached  30% of maximal function calls                   106.4669502173
 POWELL| Reached  32% of maximal function calls                   106.4669502173
 POWELL| Reached  34% of maximal function calls                   106.4669502173
 POWELL| Reached  36% of maximal function calls                   106.4669502173
 POWELL| Reached  38% of maximal function calls                   106.4669502173
 POWELL| Reached  40% of maximal function calls                   106.4669502173
 POWELL| Reached  42% of maximal function calls                   106.4669502173
 POWELL| Reached  44% of maximal function calls                   106.4669502173
 POWELL| Reached  46% of maximal function calls                   106.4669502173
 POWELL| Reached  48% of maximal function calls                   106.4669502173
 POWELL| Reached  50% of maximal function calls                   106.4669502173
 POWELL| Reached  52% of maximal function calls                   106.4669502173
 POWELL| Reached  54% of maximal function calls                   106.4669502173
 POWELL| Reached  56% of maximal function calls                   106.4669502173
 POWELL| Reached  57% of maximal function calls                   106.4564823175
 POWELL| Reached  60% of maximal function calls                   106.4545014024
 POWELL| Reached  62% of maximal function calls                   106.4493772353
 POWELL| Reached  64% of maximal function calls                   106.4493772353
 POWELL| Reached  66% of maximal function calls                   106.4493772353
 POWELL| Reached  68% of maximal function calls                   106.4493772353
 POWELL| Reached  70% of maximal function calls                   106.4492818650
 POWELL| Reached  72% of maximal function calls                   106.4491348525
 POWELL| Reached  74% of maximal function calls                   106.4491348525
 POWELL| Reached  76% of maximal function calls                   106.4491342597
 POWELL| Reached  78% of maximal function calls                   106.4490821219
 POWELL| Reached  80% of maximal function calls                   106.4490784077
 POWELL| Reached  82% of maximal function calls                   106.4490772511
 POWELL| Reached  84% of maximal function calls                   106.4490772511
 POWELL| Reached  86% of maximal function calls                   106.4490769701
 POWELL| Reached  88% of maximal function calls                   106.4490761367
 POWELL| Reached  90% of maximal function calls                   106.4490761367
 POWELL| Reached  92% of maximal function calls                   106.4490761367
 POWELL| Reached  94% of maximal function calls                   106.4490760200
 POWELL| Reached  96% of maximal function calls                   106.4490760200
 POWELL| Reached  98% of maximal function calls                   106.4490759455
 POWELL| Reached 100% of maximal function calls                   106.4490759455
 POWELL| Reached 100% of maximal function calls                   106.4490759272
 POWELL| Exceeding maximum number of steps
 POWELL| Reached 100% of maximal function calls                   106.4490759272
 POWELL| RMS average of variables                                   0.0000361829
 POWELL| Start optimization 100 of total 100               rhobeg =   0.00010826
 POWELL| Inital value of function                                 106.4490759272
 POWELL| Reached   6% of maximal function calls                   106.4490759272
 POWELL| Reached   8% of maximal function calls                   106.4490759272
 POWELL| Reached  10% of maximal function calls                   106.4490759272
 POWELL| Reached  12% of maximal function calls                   106.4490759272
 POWELL| Reached  14% of maximal function calls                   106.3821233028
 POWELL| Reached  16% of maximal function calls                   106.3821233028
 POWELL| Reached  18% of maximal function calls                   106.3821233028
 POWELL| Reached  20% of maximal function calls                   106.3821233028
 POWELL| Reached  22% of maximal function calls                   106.3524954567
 POWELL| Reached  24% of maximal function calls                   106.3524954567
 POWELL| Reached  26% of maximal function calls                   106.3524954567
 POWELL| Reached  28% of maximal function calls                   106.3524954567
 POWELL| Reached  30% of maximal function calls                   106.3524954567
 POWELL| Reached  32% of maximal function calls                   106.3524954567
 POWELL| Reached  34% of maximal function calls                   106.3524954567
 POWELL| Reached  36% of maximal function calls                   106.3524954567
 POWELL| Reached  38% of maximal function calls                   106.2640665596
 POWELL| Reached  40% of maximal function calls                   106.2640665596
 POWELL| Reached  42% of maximal function calls                   106.2640665596
 POWELL| Reached  44% of maximal function calls                   106.2640665596
 POWELL| Reached  46% of maximal function calls                   106.2640665596
 POWELL| Reached  48% of maximal function calls                   106.2640665596
 POWELL| Reached  50% of maximal function calls                   106.2640665596
 POWELL| Reached  52% of maximal function calls                   106.2640665596
 POWELL| Reached  54% of maximal function calls                   106.2640665596
 POWELL| Reached  56% of maximal function calls                   106.2640665596
 POWELL| Reached  57% of maximal function calls                   106.2640665596
 POWELL| Reached  60% of maximal function calls                   106.2640665596
 POWELL| Reached  62% of maximal function calls                   106.2640665596
 POWELL| Reached  64% of maximal function calls                   106.2640665596
 POWELL| Reached  66% of maximal function calls                   106.2615305018
 POWELL| Reached  68% of maximal function calls                   106.2606265722
 POWELL| Reached  70% of maximal function calls                   106.2569027683
 POWELL| Reached  72% of maximal function calls                   106.2542603965
 POWELL| Reached  74% of maximal function calls                   106.2542082084
 POWELL| Reached  76% of maximal function calls                   106.2542082084
 POWELL| Reached  78% of maximal function calls                   106.2542082084
 POWELL| Reached  80% of maximal function calls                   106.2542082084
 POWELL| Reached  82% of maximal function calls                   106.2541790668
 POWELL| Reached  84% of maximal function calls                   106.2541790668
 POWELL| Reached  86% of maximal function calls                   106.2541790668
 POWELL| Reached  88% of maximal function calls                   106.2541790668
 POWELL| Reached  90% of maximal function calls                   106.2541753543
 POWELL| Reached  92% of maximal function calls                   106.2541753543
 POWELL| Reached  94% of maximal function calls                   106.2541661588
 POWELL| Reached  96% of maximal function calls                   106.2541661588
 POWELL| Reached  98% of maximal function calls                   106.2541559236
 POWELL| Reached 100% of maximal function calls                   106.2541559236
 POWELL| Reached 100% of maximal function calls                   106.2541324917
 POWELL| Exceeding maximum number of steps
 POWELL| Reached 100% of maximal function calls                   106.2541324917
 POWELL| RMS average of variables                                   0.0000302513
 POWELL| Number of function evaluations                                       50
 POWELL| Final value of function                                  106.2541324917

 POWELL| Final errors of target values

 Reference configuration          1               Method number                1
    L    N    Occupation      Eigenvalue [eV]           dE [eV]          dCharge 
    0    1          2.00       -77.9624852247 SC  -0.053691[11]    -0.000170[ X]
    0    2          2.00        -4.8947668114 VA   0.008545[74]    -0.001271[ 0]
    0    3          0.00         1.0110201524 U1   0.000662[ X]     0.000236[ X]
    0    4          0.00         6.9829718322 U2   0.000193[ X]     0.000909[ 0]
    1    1          6.00       -49.2013546602 SC   0.028192[ 3]    -0.000691[ X]
    1    2          0.00        -1.3026333607 U1   0.059797[ 7]    -0.009176[ 0]
    1    3          0.00         2.6422365844 U2   0.058015[ 0]    -0.003352[ 0]
    2    1          4.00        -5.9868932106 VA   0.002433[ 5]    -0.004400[ 0]
    2    2          0.00         1.8593161016 U1   0.001089[ X]     0.000393[ X]
    2    3          0.00         6.4845834153 U2   0.016853[ X]    -0.002078[ 0]
    3    1          0.00         4.0034221783 U1  -0.005487[ 0]     0.000008[ X]
    s-states N=    1                   Wavefunction at r=0:         0.049512[ 0]
    s-states N=    2                   Wavefunction at r=0:        -0.164802[ 0]
    s-states N=    3                   Wavefunction at r=0:         0.099275[ 0]
    s-states N=    4                   Wavefunction at r=0:        -0.164009[ 0]

 Number of target values reached:                                       9 of  19



                             NORMAL TERMINATION OF     
                                                       
                           ****  ******  ****   ****   
                          **  ** ****** **  ** ******  
                          ******   **   **  ** **  **  
                          **  **   **    ****  **  **  


 -------------------------------------------------------------------------------
 -                                                                             -
 -                                DBCSR STATISTICS                             -
 -                                                                             -
 -------------------------------------------------------------------------------
 COUNTER                                    TOTAL       BLAS       SMM       ACC
 flops inhomo. stacks                           0       0.0%      0.0%      0.0%
 flops total                         0.000000E+00       0.0%      0.0%      0.0%
 flops max/rank                      0.000000E+00       0.0%      0.0%      0.0%
 matmuls inhomo. stacks                         0       0.0%      0.0%      0.0%
 matmuls total                                  0       0.0%      0.0%      0.0%
 number of processed stacks                     0       0.0%      0.0%      0.0%
 average stack size                                     0.0       0.0       0.0
 marketing flops                     0.000000E+00
 -------------------------------------------------------------------------------

 MEMORY| Estimated peak process memory [MiB]                                  47

 -------------------------------------------------------------------------------
 -                                                                             -
 -                           R E F E R E N C E S                               -
 -                                                                             -
 -------------------------------------------------------------------------------
 
 CP2K version 7.0 (Development Version), the CP2K developers group (2018).
 CP2K is freely available from https://www.cp2k.org/ .

 Schuett, Ole; Messmer, Peter; Hutter, Juerg; VandeVondele, Joost. 
 Electronic Structure Calculations on Graphics Processing Units, John Wiley & Sons, Ltd, 173-190 (2016). 
 GPU-Accelerated Sparse Matrix-Matrix Multiplication for Linear Scaling Density Functional Theory.
 http://dx.doi.org/10.1002/9781118670712.ch8


 Borstnik, U; VandeVondele, J; Weber, V; Hutter, J. 
 PARALLEL COMPUTING, 40 (5-6), 47-58 (2014). 
 Sparse matrix multiplication: The distributed block-compressed sparse
 row library.
 http://dx.doi.org/10.1016/j.parco.2014.03.012


 Hutter, J; Iannuzzi, M; Schiffmann, F; VandeVondele, J. 
 WILEY INTERDISCIPLINARY REVIEWS-COMPUTATIONAL MOLECULAR SCIENCE, 4 (1), 15-25 (2014). 
 CP2K: atomistic simulations of condensed matter systems.
 http://dx.doi.org/10.1002/wcms.1159


 Frigo, M; Johnson, SG. 
 PROCEEDINGS OF THE IEEE, 93 (2), 216-231 (2005). 
 The design and implementation of FFTW3.
 http://dx.doi.org/10.1109/JPROC.2004.840301


 Perdew, JP; Burke, K; Ernzerhof, M. 
 PHYSICAL REVIEW LETTERS, 77 (18), 3865-3868 (1996). 
 Generalized gradient approximation made simple.
 http://dx.doi.org/10.1103/PhysRevLett.77.3865


 -------------------------------------------------------------------------------
 -                                                                             -
 -                                T I M I N G                                  -
 -                                                                             -
 -------------------------------------------------------------------------------
 SUBROUTINE                       CALLS  ASD         SELF TIME        TOTAL TIME
                                MAXIMUM       AVERAGE  MAXIMUM  AVERAGE  MAXIMUM
 CP2K                                 1  1.0    0.002    0.002 1406.262 1406.262
 atom_code                            1  2.0    0.000    0.000 1406.258 1406.258
 atom_pseudo_opt                      1  3.0    8.799    8.799 1406.258 1406.258
 calculate_atom                    5711  4.0    0.017    0.017 1392.224 1392.224
 calculate_atom_restricted         5711  5.0  485.541  485.541 1392.207 1392.207
 calculate_atom_vxc_lda          286585  6.0  848.478  848.478  906.665  906.665
 xc_functional_eval              286585  7.0    0.648    0.648   57.926   57.926
 pbe_lda_eval                    286585  8.0   57.279   57.279   57.279   57.279
 -------------------------------------------------------------------------------

 The number of warnings for this run is : 0
 
 -------------------------------------------------------------------------------
  **** **** ******  **  PROGRAM ENDED AT                 2018-06-24 20:04:27.532
 ***** ** ***  *** **   PROGRAM RAN ON                                    tcpc01
 **    ****   ******    PROGRAM RAN BY                                    hutter
 ***** **    ** ** **   PROGRAM PROCESS ID                                  1994
  **** **  *******  **  PROGRAM STOPPED IN /data/hutter/pseudo/UZH2018/PBE/Cr/q1
                                           4
