
  **** **** ******  **  PROGRAM STARTED AT               2018-06-24 19:27:11.993
 ***** ** ***  *** **   PROGRAM STARTED ON                                tcpc01
 **    ****   ******    PROGRAM STARTED BY                                hutter
 ***** **    ** ** **   PROGRAM PROCESS ID                                  1737
  **** **  *******  **  PROGRAM STARTED IN /data/hutter/pseudo/UZH2018/PBE/Co/q1
                                           7

 CP2K| version string:                    CP2K version 7.0 (Development Version)
 CP2K| source code revision number:                                    svn:18485
 CP2K| cp2kflags: libint fftw3 libxc libderiv_max_am1=5 libint_max_am=6 spglib  
 CP2K| is freely available from                            https://www.cp2k.org/
 CP2K| Program compiled at                         Wed Jun 20 10:41:43 CEST 2018
 CP2K| Program compiled on                                                tcpc01
 CP2K| Program compiled for                                                local
 CP2K| Data directory path                        /data/hutter/CURRENT/cp2k/data
 CP2K| Input file name                                                    Co.inp

 GLOBAL| Method name                                                        ATOM
 GLOBAL| Project name                                                    PROJECT
 GLOBAL| Preferred FFT library                                             FFTW3
 GLOBAL| Preferred diagonalization lib.                                       SL
 GLOBAL| Run type                                                   ENERGY_FORCE
 GLOBAL| All-to-all communication in single precision                          F
 GLOBAL| FFTs using library dependent lengths                                  F
 GLOBAL| Global print level                                               MEDIUM
 GLOBAL| Total number of message passing processes                             1
 GLOBAL| Number of threads for this process                                    1
 GLOBAL| This output is from process                                           0
 GLOBAL| CPU model name :  Intel(R) Xeon(R) CPU           X5570  @ 2.93GHz

 MEMORY| system memory details [Kb]
 MEMORY|                        rank 0           min           max       average
 MEMORY| MemTotal             37009584      37009584      37009584      37009584
 MEMORY| MemFree              32359208      32359208      32359208      32359208
 MEMORY| Buffers                296508        296508        296508        296508
 MEMORY| Cached                2034808       2034808       2034808       2034808
 MEMORY| Slab                   271932        271932        271932        271932
 MEMORY| SReclaimable           203648        203648        203648        203648
 MEMORY| MemLikelyFree        34894172      34894172      34894172      34894172


 *** Fundamental physical constants (SI units) ***

 *** Literature: B. J. Mohr and B. N. Taylor,
 ***             CODATA recommended values of the fundamental physical
 ***             constants: 2006, Web Version 5.1
 ***             http://physics.nist.gov/constants

 Speed of light in vacuum [m/s]                             2.99792458000000E+08
 Magnetic constant or permeability of vacuum [N/A**2]       1.25663706143592E-06
 Electric constant or permittivity of vacuum [F/m]          8.85418781762039E-12
 Planck constant (h) [J*s]                                  6.62606896000000E-34
 Planck constant (h-bar) [J*s]                              1.05457162825177E-34
 Elementary charge [C]                                      1.60217648700000E-19
 Electron mass [kg]                                         9.10938215000000E-31
 Electron g factor [ ]                                     -2.00231930436220E+00
 Proton mass [kg]                                           1.67262163700000E-27
 Fine-structure constant                                    7.29735253760000E-03
 Rydberg constant [1/m]                                     1.09737315685270E+07
 Avogadro constant [1/mol]                                  6.02214179000000E+23
 Boltzmann constant [J/K]                                   1.38065040000000E-23
 Atomic mass unit [kg]                                      1.66053878200000E-27
 Bohr radius [m]                                            5.29177208590000E-11

 *** Conversion factors ***

 [u] -> [a.u.]                                              1.82288848426455E+03
 [Angstrom] -> [Bohr] = [a.u.]                              1.88972613288564E+00
 [a.u.] = [Bohr] -> [Angstrom]                              5.29177208590000E-01
 [a.u.] -> [s]                                              2.41888432650478E-17
 [a.u.] -> [fs]                                             2.41888432650478E-02
 [a.u.] -> [J]                                              4.35974393937059E-18
 [a.u.] -> [N]                                              8.23872205491840E-08
 [a.u.] -> [K]                                              3.15774647902944E+05
 [a.u.] -> [kJ/mol]                                         2.62549961709828E+03
 [a.u.] -> [kcal/mol]                                       6.27509468713739E+02
 [a.u.] -> [Pa]                                             2.94210107994716E+13
 [a.u.] -> [bar]                                            2.94210107994716E+08
 [a.u.] -> [atm]                                            2.90362800883016E+08
 [a.u.] -> [eV]                                             2.72113838565563E+01
 [a.u.] -> [Hz]                                             6.57968392072181E+15
 [a.u.] -> [1/cm] (wave numbers)                            2.19474631370540E+05
 [a.u./Bohr**2] -> [1/cm]                                   5.14048714338585E+03
 
 DBCSR| Multiplication driver                                               BLAS
 DBCSR| Multrec recursion limit                                              512
 DBCSR| Multiplication stack size                                           1000
 DBCSR| Maximum elements for images                                    UNLIMITED
 DBCSR| Multiplicative factor virtual images                                   1
 DBCSR| Multiplication size stacks                                             3



                           ****  ******  ****   ****   
                          **  ** ****** **  ** ******  
                          ******   **   **  ** **  **  
                          **  **   **    ****  **  **  
                                                       
                             University of Zurich      
                                 2009 - 2015           
                                                       
                                 Version 0.0           
                                                                   


 Atomic Energy Calculation             Cobalt [Co]           Atomic number:   27


 *******************************************************************************
 ************************** Calculate Reference States *************************
 *******************************************************************************

 METHOD    | Restricted Kohn-Sham Calculation
 METHOD    | Relativistic Calculation using Douglas-Kroll 3rd order
 FUNCTIONAL| ROUTINE=NEW
 FUNCTIONAL| PBE:
 FUNCTIONAL| J.P.Perdew, K.Burke, M.Ernzerhof, Phys. Rev. Letter, vol. 77, n 18,
 FUNCTIONAL|  pp. 3865-3868, (1996){spin unpolarized}                           

 Electronic structure
    Total number of core electrons                                          0.00
    Total number of valence electrons                                      27.00
    Total number of electrons                                              27.00
    Multiplicity                                                   not specified
    S      2.00  2.00  2.00  2.00
    P      6.00  6.00
    D      7.00


 *******************************************************************************
                  Iteration          Convergence                     Energy [au]
 *******************************************************************************
                          1         16.2461                   -1328.787594137171
                          2         7.39824                   -1289.670208403470
                          3         7.51912                   -1371.136242616297
                          4         1.94924                   -1390.076264177305
                          5        0.290090                   -1392.881377784873
                          6        0.216896                   -1392.895631031967
                          7        0.645198E-01               -1392.922344764695
                          8        0.479235E-03               -1392.924869951605
                          9        0.222301E-03               -1392.924870000041
                         10        0.247342E-04               -1392.924870048680
                         11        0.705292E-06               -1392.924870049166
                         12        0.205409E-06               -1392.924870049167
                         13        0.248365E-06               -1392.924870049165
                         14        0.415567E-06               -1392.924870049160
                         15        0.247754E-07               -1392.924870049159

 Energy components [Hartree]           Total Energy ::        -1392.924870049159
                                        Band Energy ::         -817.733681963851
                                     Kinetic Energy ::         1455.176710290880
                                   Potential Energy ::        -2848.101580340040
                                      Virial (-V/T) ::            1.957220425670
                                        Core Energy ::        -1926.329831956128
                                          XC Energy ::          -59.508877856666
                                     Coulomb Energy ::          592.913839763635
                                        Confinement ::            0.000000034370

 Orbital energies  State     L     Occupation   Energy[a.u.]          Energy[eV]

                       1     0          2.000    -278.792441        -7586.328127
                       2     0          2.000     -33.012021         -898.302763
                       3     0          2.000      -3.760380         -102.325152
                       4     0          2.000      -0.200806           -5.464214
                       5     0          0.000       0.034783            0.946506
                       6     0          0.000       0.252159            6.861605

                       1     1          6.000     -28.271940         -769.318617
                       2     1          6.000      -2.410141          -65.583280
                       3     1          0.000      -0.045544           -1.239314
                       4     1          0.000       0.091693            2.495104

                       1     2          7.000      -0.301414           -8.201888
                       2     2          0.000       0.070016            1.905219
                       3     2          0.000       0.223753            6.088620

                       1     3          0.000       0.144750            3.938847


 Total Electron Density at R=0:                                     26456.959851

 *******************************************************************************
 ********************* Optimize Pseudopotential Parameters *********************
 *******************************************************************************

 POWELL| Start optimization procedure

 POWELL| Total number of parameters in optimization                           13

 POWELL| Initial errors of target values

 Reference configuration          1               Method number                1
    L    N    Occupation      Eigenvalue [eV]           dE [eV]          dCharge 
    0    1          2.00      -102.3463014585 SC  -0.021150[11]     0.000003[ X]
    0    2          2.00        -5.4608386370 VA   0.003375[79]     0.001433[ 0]
    0    3          0.00         0.9440819522 U1  -0.002424[ X]     0.000484[ X]
    0    4          0.00         6.8499858666 U2  -0.011619[ X]     0.000943[ 0]
    1    1          6.00       -65.5744587305 SC   0.008822[ 1]     0.000007[ X]
    1    2          0.00        -1.2219845044 U1   0.017330[ 3]    -0.001453[ X]
    1    3          0.00         2.5071723223 U2   0.012069[ X]    -0.000270[ 0]
    2    1          7.00        -8.2008325722 VA   0.001055[ 5]     0.000426[ 0]
    2    2          0.00         1.9070204841 U1   0.001801[ X]    -0.000156[ X]
    2    3          0.00         6.0962194231 U2   0.007599[ X]    -0.001251[ 0]
    3    1          0.00         3.9396491687 U1   0.000802[ X]    -0.000006[ X]

 Number of target values reached:                                      12 of  19

 POWELL| Start optimization   1 of total 100               rhobeg =   0.00040000
 POWELL| Inital value of function                                  13.7226946373
 POWELL| Reached   6% of maximal function calls                    13.7226946373
 POWELL| Reached   8% of maximal function calls                    13.7226946373
 POWELL| Reached  10% of maximal function calls                    13.7226946373
 POWELL| Reached  12% of maximal function calls                    13.7226946373
 POWELL| Reached  14% of maximal function calls                    13.7226946373
 POWELL| Reached  16% of maximal function calls                    13.7226946373
 POWELL| Reached  18% of maximal function calls                    13.7152599820
 POWELL| Reached  20% of maximal function calls                    13.7152599820
 POWELL| Reached  22% of maximal function calls                    13.6016570009
 POWELL| Reached  24% of maximal function calls                    13.6016570009
 POWELL| Reached  26% of maximal function calls                    13.6016570009
 POWELL| Reached  28% of maximal function calls                    13.6016570009
 POWELL| Reached  30% of maximal function calls                    13.6016570009
 POWELL| Reached  32% of maximal function calls                    13.6016570009
 POWELL| Reached  34% of maximal function calls                    13.6016570009
 POWELL| Reached  36% of maximal function calls                    13.6016570009
 POWELL| Reached  38% of maximal function calls                    13.6016570009
 POWELL| Reached  40% of maximal function calls                    13.6016570009
 POWELL| Reached  42% of maximal function calls                    13.6016570009
 POWELL| Reached  44% of maximal function calls                    13.6016570009
 POWELL| Reached  46% of maximal function calls                    13.6016570009
 POWELL| Reached  48% of maximal function calls                    13.6016570009
 POWELL| Reached  50% of maximal function calls                    13.6016570009
 POWELL| Reached  52% of maximal function calls                    13.6016570009
 POWELL| Reached  54% of maximal function calls                    13.6016570009
 POWELL| Reached  56% of maximal function calls                    13.6016570009
 POWELL| Reached  57% of maximal function calls                    13.6016570009
 POWELL| Reached  60% of maximal function calls                    13.5975611758
 POWELL| Reached  62% of maximal function calls                    13.5975611758
 POWELL| Reached  64% of maximal function calls                    13.5975611758
 POWELL| Reached  66% of maximal function calls                    13.5975611758
 POWELL| Reached  68% of maximal function calls                    13.5975611758
 POWELL| Reached  70% of maximal function calls                    13.5973355486
 POWELL| Reached  72% of maximal function calls                    13.5972072988
 POWELL| Reached  74% of maximal function calls                    13.5971465680
 POWELL| Reached  76% of maximal function calls                    13.5971226930
 POWELL| Reached  78% of maximal function calls                    13.5969604636
 POWELL| Reached  80% of maximal function calls                    13.5965375128
 POWELL| Reached  82% of maximal function calls                    13.5965375128
 POWELL| Reached  84% of maximal function calls                    13.5965375128
 POWELL| Reached  86% of maximal function calls                    13.5965375128
 POWELL| Reached  88% of maximal function calls                    13.5965172085
 POWELL| Reached  90% of maximal function calls                    13.5965172085
 POWELL| Reached  92% of maximal function calls                    13.5965159200
 POWELL| Reached  94% of maximal function calls                    13.5965159200
 POWELL| Reached  96% of maximal function calls                    13.5965149574
 POWELL| Reached  98% of maximal function calls                    13.5965149574
 POWELL| Reached 100% of maximal function calls                    13.5965147717
 POWELL| Reached 100% of maximal function calls                    13.5965145577
 POWELL| Exceeding maximum number of steps
 POWELL| Reached 100% of maximal function calls                    13.5965145577
 POWELL| RMS average of variables                                   0.0001115489
 POWELL| Start optimization   2 of total 100               rhobeg =   0.00039200
 POWELL| Inital value of function                                  13.5965145577
 POWELL| Reached   6% of maximal function calls                    13.5965145577
 POWELL| Reached   8% of maximal function calls                    13.5965145577
 POWELL| Reached  10% of maximal function calls                    13.5965145577
 POWELL| Reached  12% of maximal function calls                    13.5965145577
 POWELL| Reached  14% of maximal function calls                    13.5965145577
 POWELL| Reached  16% of maximal function calls                    13.5965145577
 POWELL| Reached  18% of maximal function calls                    13.5965145577
 POWELL| Reached  20% of maximal function calls                    13.5965145577
 POWELL| Reached  22% of maximal function calls                    13.5965145577
 POWELL| Reached  24% of maximal function calls                    13.5965145577
 POWELL| Reached  26% of maximal function calls                    13.5965145577
 POWELL| Reached  28% of maximal function calls                    13.5965145577
 POWELL| Reached  30% of maximal function calls                    13.5965145577
 POWELL| Reached  32% of maximal function calls                    13.5965145577
 POWELL| Reached  34% of maximal function calls                    13.5674132098
 POWELL| Reached  36% of maximal function calls                    13.5674132098
 POWELL| Reached  38% of maximal function calls                    13.5674132098
 POWELL| Reached  40% of maximal function calls                    13.5674132098
 POWELL| Reached  42% of maximal function calls                    13.5674132098
 POWELL| Reached  44% of maximal function calls                    13.5674132098
 POWELL| Reached  46% of maximal function calls                    13.5674132098
 POWELL| Reached  48% of maximal function calls                    13.5674132098
 POWELL| Reached  50% of maximal function calls                    13.5674132098
 POWELL| Reached  52% of maximal function calls                    13.5674132098
 POWELL| Reached  54% of maximal function calls                    13.5674132098
 POWELL| Reached  56% of maximal function calls                    13.5674132098
 POWELL| Reached  57% of maximal function calls                    13.5668111590
 POWELL| Reached  60% of maximal function calls                    13.5668111590
 POWELL| Reached  62% of maximal function calls                    13.5668111590
 POWELL| Reached  64% of maximal function calls                    13.5668111590
 POWELL| Reached  66% of maximal function calls                    13.5643180963
 POWELL| Reached  68% of maximal function calls                    13.5625442251
 POWELL| Reached  70% of maximal function calls                    13.5625442251
 POWELL| Reached  72% of maximal function calls                    13.5625442251
 POWELL| Reached  74% of maximal function calls                    13.5625442251
 POWELL| Reached  76% of maximal function calls                    13.5625442251
 POWELL| Reached  78% of maximal function calls                    13.5624062040
 POWELL| Reached  80% of maximal function calls                    13.5624062040
 POWELL| Reached  82% of maximal function calls                    13.5624062040
 POWELL| Reached  84% of maximal function calls                    13.5623339135
 POWELL| Reached  86% of maximal function calls                    13.5623339135
 POWELL| Reached  88% of maximal function calls                    13.5614853164
 POWELL| Reached  90% of maximal function calls                    13.5614853164
 POWELL| Reached  92% of maximal function calls                    13.5614853164
 POWELL| Reached  94% of maximal function calls                    13.5612444104
 POWELL| Reached  96% of maximal function calls                    13.5612444104
 POWELL| Reached  98% of maximal function calls                    13.5612444104
 POWELL| Reached 100% of maximal function calls                    13.5608544698
 POWELL| Reached 100% of maximal function calls                    13.5589834209
 POWELL| Exceeding maximum number of steps
 POWELL| Reached 100% of maximal function calls                    13.5589834209
 POWELL| RMS average of variables                                   0.0001202952
 POWELL| Start optimization   3 of total 100               rhobeg =   0.00038416
 POWELL| Inital value of function                                  13.5589834209
 POWELL| Reached   6% of maximal function calls                    13.5589834209
 POWELL| Reached   8% of maximal function calls                    13.5589834209
 POWELL| Reached  10% of maximal function calls                    13.5589834209
 POWELL| Reached  12% of maximal function calls                    13.5589834209
 POWELL| Reached  14% of maximal function calls                    13.5589834209
 POWELL| Reached  16% of maximal function calls                    13.5589834209
 POWELL| Reached  18% of maximal function calls                    13.5589834209
 POWELL| Reached  20% of maximal function calls                    13.5589834209
 POWELL| Reached  22% of maximal function calls                    13.5589834209
 POWELL| Reached  24% of maximal function calls                    13.5589834209
 POWELL| Reached  26% of maximal function calls                    13.5589834209
 POWELL| Reached  28% of maximal function calls                    13.5589834209
 POWELL| Reached  30% of maximal function calls                    13.5589834209
 POWELL| Reached  32% of maximal function calls                    13.5589834209
 POWELL| Reached  34% of maximal function calls                    13.5589834209
 POWELL| Reached  36% of maximal function calls                    13.5589834209
 POWELL| Reached  38% of maximal function calls                    13.5589834209
 POWELL| Reached  40% of maximal function calls                    13.5589834209
 POWELL| Reached  42% of maximal function calls                    13.5589834209
 POWELL| Reached  44% of maximal function calls                    13.5105643011
 POWELL| Reached  46% of maximal function calls                    13.5105643011
 POWELL| Reached  48% of maximal function calls                    13.5105643011
 POWELL| Reached  50% of maximal function calls                    13.5105643011
 POWELL| Reached  52% of maximal function calls                    13.5105643011
 POWELL| Reached  54% of maximal function calls                    13.5105643011
 POWELL| Reached  56% of maximal function calls                    13.5105643011
 POWELL| Reached  57% of maximal function calls                    13.5105643011
 POWELL| Reached  60% of maximal function calls                    13.5105643011
 POWELL| Reached  62% of maximal function calls                    13.5105643011
 POWELL| Reached  64% of maximal function calls                    13.5105643011
 POWELL| Reached  66% of maximal function calls                    13.5105643011
 POWELL| Reached  68% of maximal function calls                    13.5105643011
 POWELL| Reached  70% of maximal function calls                    13.5067961957
 POWELL| Reached  72% of maximal function calls                    13.5015629297
 POWELL| Reached  74% of maximal function calls                    13.5015629297
 POWELL| Reached  76% of maximal function calls                    13.5013133701
 POWELL| Reached  78% of maximal function calls                    13.5011346555
 POWELL| Reached  80% of maximal function calls                    13.5009411304
 POWELL| Reached  82% of maximal function calls                    13.5009411304
 POWELL| Reached  84% of maximal function calls                    13.5009411304
 POWELL| Reached  86% of maximal function calls                    13.5009411304
 POWELL| Reached  88% of maximal function calls                    13.5006068944
 POWELL| Reached  90% of maximal function calls                    13.5005529600
 POWELL| Reached  92% of maximal function calls                    13.5005529600
 POWELL| Reached  94% of maximal function calls                    13.5004321749
 POWELL| Reached  96% of maximal function calls                    13.4998541182
 POWELL| Reached  98% of maximal function calls                    13.4998541182
 POWELL| Reached 100% of maximal function calls                    13.4998541182
 POWELL| Reached 100% of maximal function calls                    13.4994545965
 POWELL| Exceeding maximum number of steps
 POWELL| Reached 100% of maximal function calls                    13.4994545965
 POWELL| RMS average of variables                                   0.0001066697
 POWELL| Start optimization   4 of total 100               rhobeg =   0.00037648
 POWELL| Inital value of function                                  13.4994545965
 POWELL| Reached   6% of maximal function calls                    13.4994545965
 POWELL| Reached   8% of maximal function calls                    13.4994545965
 POWELL| Reached  10% of maximal function calls                    13.4994545965
 POWELL| Reached  12% of maximal function calls                    13.4994545965
 POWELL| Reached  14% of maximal function calls                    13.4994545965
 POWELL| Reached  16% of maximal function calls                    13.4994545965
 POWELL| Reached  18% of maximal function calls                    13.4994545965
 POWELL| Reached  20% of maximal function calls                    13.4994545965
 POWELL| Reached  22% of maximal function calls                    13.4994545965
 POWELL| Reached  24% of maximal function calls                    13.4994545965
 POWELL| Reached  26% of maximal function calls                    13.4994545965
 POWELL| Reached  28% of maximal function calls                    13.4994545965
 POWELL| Reached  30% of maximal function calls                    13.4994545965
 POWELL| Reached  32% of maximal function calls                    13.4994545965
 POWELL| Reached  34% of maximal function calls                    13.4697093349
 POWELL| Reached  36% of maximal function calls                    13.4697093349
 POWELL| Reached  38% of maximal function calls                    13.4697093349
 POWELL| Reached  40% of maximal function calls                    13.4697093349
 POWELL| Reached  42% of maximal function calls                    13.4697093349
 POWELL| Reached  44% of maximal function calls                    13.4697093349
 POWELL| Reached  46% of maximal function calls                    13.4697093349
 POWELL| Reached  48% of maximal function calls                    13.4697093349
 POWELL| Reached  50% of maximal function calls                    13.4697093349
 POWELL| Reached  52% of maximal function calls                    13.4697093349
 POWELL| Reached  54% of maximal function calls                    13.4697093349
 POWELL| Reached  56% of maximal function calls                    13.4697093349
 POWELL| Reached  57% of maximal function calls                    13.4686002808
 POWELL| Reached  60% of maximal function calls                    13.4686002808
 POWELL| Reached  62% of maximal function calls                    13.4686002808
 POWELL| Reached  64% of maximal function calls                    13.4686002808
 POWELL| Reached  66% of maximal function calls                    13.4665046570
 POWELL| Reached  68% of maximal function calls                    13.4649634856
 POWELL| Reached  70% of maximal function calls                    13.4649634856
 POWELL| Reached  72% of maximal function calls                    13.4649634856
 POWELL| Reached  74% of maximal function calls                    13.4649634856
 POWELL| Reached  76% of maximal function calls                    13.4649634856
 POWELL| Reached  78% of maximal function calls                    13.4648424239
 POWELL| Reached  80% of maximal function calls                    13.4648424239
 POWELL| Reached  82% of maximal function calls                    13.4648424239
 POWELL| Reached  84% of maximal function calls                    13.4648424239
 POWELL| Reached  86% of maximal function calls                    13.4645848877
 POWELL| Reached  88% of maximal function calls                    13.4645848877
 POWELL| Reached  90% of maximal function calls                    13.4645848877
 POWELL| Reached  92% of maximal function calls                    13.4630939382
 POWELL| Reached  94% of maximal function calls                    13.4630939382
 POWELL| Reached  96% of maximal function calls                    13.4630939382
 POWELL| Reached  98% of maximal function calls                    13.4630939382
 POWELL| Reached 100% of maximal function calls                    13.4630939382
 POWELL| Reached 100% of maximal function calls                    13.4620346594
 POWELL| Exceeding maximum number of steps
 POWELL| Reached 100% of maximal function calls                    13.4620346594
 POWELL| RMS average of variables                                   0.0001156983
 POWELL| Start optimization   5 of total 100               rhobeg =   0.00036895
 POWELL| Inital value of function                                  13.4620346594
 POWELL| Reached   6% of maximal function calls                    13.4620346594
 POWELL| Reached   8% of maximal function calls                    13.4620346594
 POWELL| Reached  10% of maximal function calls                    13.4620346594
 POWELL| Reached  12% of maximal function calls                    13.4620346594
 POWELL| Reached  14% of maximal function calls                    13.4620346594
 POWELL| Reached  16% of maximal function calls                    13.4620346594
 POWELL| Reached  18% of maximal function calls                    13.4620346594
 POWELL| Reached  20% of maximal function calls                    13.4620346594
 POWELL| Reached  22% of maximal function calls                    13.4620346594
 POWELL| Reached  24% of maximal function calls                    13.4620346594
 POWELL| Reached  26% of maximal function calls                    13.4620346594
 POWELL| Reached  28% of maximal function calls                    13.4620346594
 POWELL| Reached  30% of maximal function calls                    13.4620346594
 POWELL| Reached  32% of maximal function calls                    13.4620346594
 POWELL| Reached  34% of maximal function calls                    13.4620346594
 POWELL| Reached  36% of maximal function calls                    13.4620346594
 POWELL| Reached  38% of maximal function calls                    13.4620346594
 POWELL| Reached  40% of maximal function calls                    13.4620346594
 POWELL| Reached  42% of maximal function calls                    13.4620346594
 POWELL| Reached  44% of maximal function calls                    13.4620346594
 POWELL| Reached  46% of maximal function calls                    13.4620346594
 POWELL| Reached  48% of maximal function calls                    13.4620346594
 POWELL| Reached  50% of maximal function calls                    13.4620346594
 POWELL| Reached  52% of maximal function calls                    13.4620346594
 POWELL| Reached  54% of maximal function calls                    13.4620346594
 POWELL| Reached  56% of maximal function calls                    13.4620346594
 POWELL| Reached  57% of maximal function calls                    13.4620346594
 POWELL| Reached  60% of maximal function calls                    13.4620346594
 POWELL| Reached  62% of maximal function calls                    13.4620346594
 POWELL| Reached  64% of maximal function calls                    13.4620346594
 POWELL| Reached  66% of maximal function calls                    13.4620346594
 POWELL| Reached  68% of maximal function calls                    13.4620346594
 POWELL| Reached  70% of maximal function calls                    13.4620346594
 POWELL| Reached  72% of maximal function calls                    13.4620346594
 POWELL| Reached  74% of maximal function calls                    13.4620346594
 POWELL| Reached  76% of maximal function calls                    13.4619276588
 POWELL| Reached  78% of maximal function calls                    13.4618212220
 POWELL| Reached  80% of maximal function calls                    13.4618212220
 POWELL| Reached  82% of maximal function calls                    13.4618212220
 POWELL| Reached  84% of maximal function calls                    13.4618212220
 POWELL| Reached  86% of maximal function calls                    13.4618212220
 POWELL| Reached  88% of maximal function calls                    13.4618212220
 POWELL| Reached  90% of maximal function calls                    13.4618212220
 POWELL| Reached  92% of maximal function calls                    13.4618197205
 POWELL| Reached  94% of maximal function calls                    13.4617883820
 POWELL| Reached  96% of maximal function calls                    13.4617854991
 POWELL| Reached  98% of maximal function calls                    13.4616087020
 POWELL| Reached 100% of maximal function calls                    13.4616087020
 POWELL| Reached 100% of maximal function calls                    13.4616087020
 POWELL| Exceeding maximum number of steps
 POWELL| Reached 100% of maximal function calls                    13.4616087020
 POWELL| RMS average of variables                                   0.0000002062
 POWELL| Start optimization   6 of total 100               rhobeg =   0.00036157
 POWELL| Inital value of function                                  13.4616087020
 POWELL| Reached   6% of maximal function calls                    13.4616087020
 POWELL| Reached   8% of maximal function calls                    13.4616087020
 POWELL| Reached  10% of maximal function calls                    13.4616087020
 POWELL| Reached  12% of maximal function calls                    13.4616087020
 POWELL| Reached  14% of maximal function calls                    13.4616087020
 POWELL| Reached  16% of maximal function calls                    13.4616087020
 POWELL| Reached  18% of maximal function calls                    13.4616087020
 POWELL| Reached  20% of maximal function calls                    13.4616087020
 POWELL| Reached  22% of maximal function calls                    13.4616087020
 POWELL| Reached  24% of maximal function calls                    13.4616087020
 POWELL| Reached  26% of maximal function calls                    13.4616087020
 POWELL| Reached  28% of maximal function calls                    13.4616087020
 POWELL| Reached  30% of maximal function calls                    13.4616087020
 POWELL| Reached  32% of maximal function calls                    13.4616087020
 POWELL| Reached  34% of maximal function calls                    13.4616087020
 POWELL| Reached  36% of maximal function calls                    13.4616087020
 POWELL| Reached  38% of maximal function calls                    13.4616087020
 POWELL| Reached  40% of maximal function calls                    13.4616087020
 POWELL| Reached  42% of maximal function calls                    13.4616087020
 POWELL| Reached  44% of maximal function calls                    13.4616087020
 POWELL| Reached  46% of maximal function calls                    13.4616087020
 POWELL| Reached  48% of maximal function calls                    13.4616087020
 POWELL| Reached  50% of maximal function calls                    13.4616087020
 POWELL| Reached  52% of maximal function calls                    13.4616087020
 POWELL| Reached  54% of maximal function calls                    13.4616087020
 POWELL| Reached  56% of maximal function calls                    13.4616087020
 POWELL| Reached  57% of maximal function calls                    13.4616087020
 POWELL| Reached  60% of maximal function calls                    13.4616087020
 POWELL| Reached  62% of maximal function calls                    13.4616087020
 POWELL| Reached  64% of maximal function calls                    13.4616087020
 POWELL| Reached  66% of maximal function calls                    13.4616087020
 POWELL| Reached  68% of maximal function calls                    13.4616087020
 POWELL| Reached  70% of maximal function calls                    13.4616087020
 POWELL| Reached  72% of maximal function calls                    13.4616087020
 POWELL| Reached  74% of maximal function calls                    13.4616087020
 POWELL| Reached  76% of maximal function calls                    13.4615046997
 POWELL| Reached  78% of maximal function calls                    13.4614013465
 POWELL| Reached  80% of maximal function calls                    13.4614013465
 POWELL| Reached  82% of maximal function calls                    13.4614013465
 POWELL| Reached  84% of maximal function calls                    13.4614013465
 POWELL| Reached  86% of maximal function calls                    13.4614013465
 POWELL| Reached  88% of maximal function calls                    13.4614013465
 POWELL| Reached  90% of maximal function calls                    13.4614013465
 POWELL| Reached  92% of maximal function calls                    13.4613999161
 POWELL| Reached  94% of maximal function calls                    13.4613695640
 POWELL| Reached  96% of maximal function calls                    13.4613667285
 POWELL| Reached  98% of maximal function calls                    13.4611932839
 POWELL| Reached 100% of maximal function calls                    13.4611932839
 POWELL| Reached 100% of maximal function calls                    13.4611932839
 POWELL| Exceeding maximum number of steps
 POWELL| Reached 100% of maximal function calls                    13.4611932839
 POWELL| RMS average of variables                                   0.0000002021
 POWELL| Start optimization   7 of total 100               rhobeg =   0.00035434
 POWELL| Inital value of function                                  13.4611932839
 POWELL| Reached   6% of maximal function calls                    13.4611932839
 POWELL| Reached   8% of maximal function calls                    13.4611932839
 POWELL| Reached  10% of maximal function calls                    13.4611932839
 POWELL| Reached  12% of maximal function calls                    13.4611932839
 POWELL| Reached  14% of maximal function calls                    13.4611932839
 POWELL| Reached  16% of maximal function calls                    13.4611932839
 POWELL| Reached  18% of maximal function calls                    13.4611932839
 POWELL| Reached  20% of maximal function calls                    13.4611932839
 POWELL| Reached  22% of maximal function calls                    13.4611932839
 POWELL| Reached  24% of maximal function calls                    13.4611932839
 POWELL| Reached  26% of maximal function calls                    13.4611932839
 POWELL| Reached  28% of maximal function calls                    13.4611932839
 POWELL| Reached  30% of maximal function calls                    13.4611932839
 POWELL| Reached  32% of maximal function calls                    13.4611932839
 POWELL| Reached  34% of maximal function calls                    13.4611932839
 POWELL| Reached  36% of maximal function calls                    13.4611932839
 POWELL| Reached  38% of maximal function calls                    13.4611932839
 POWELL| Reached  40% of maximal function calls                    13.4611932839
 POWELL| Reached  42% of maximal function calls                    13.4611932839
 POWELL| Reached  44% of maximal function calls                    13.4600381444
 POWELL| Reached  46% of maximal function calls                    13.4600381444
 POWELL| Reached  48% of maximal function calls                    13.4600381444
 POWELL| Reached  50% of maximal function calls                    13.4600381444
 POWELL| Reached  52% of maximal function calls                    13.4600381444
 POWELL| Reached  54% of maximal function calls                    13.4600381444
 POWELL| Reached  56% of maximal function calls                    13.4600381444
 POWELL| Reached  57% of maximal function calls                    13.4600381444
 POWELL| Reached  60% of maximal function calls                    13.4600381444
 POWELL| Reached  62% of maximal function calls                    13.4600381444
 POWELL| Reached  64% of maximal function calls                    13.4600381444
 POWELL| Reached  66% of maximal function calls                    13.4600381444
 POWELL| Reached  68% of maximal function calls                    13.4586094185
 POWELL| Reached  70% of maximal function calls                    13.4585821356
 POWELL| Reached  72% of maximal function calls                    13.4511206615
 POWELL| Reached  74% of maximal function calls                    13.4459642347
 POWELL| Reached  76% of maximal function calls                    13.4459440384
 POWELL| Reached  78% of maximal function calls                    13.4459440384
 POWELL| Reached  80% of maximal function calls                    13.4459440384
 POWELL| Reached  82% of maximal function calls                    13.4459440384
 POWELL| Reached  84% of maximal function calls                    13.4459138484
 POWELL| Reached  86% of maximal function calls                    13.4458950339
 POWELL| Reached  88% of maximal function calls                    13.4458950339
 POWELL| Reached  90% of maximal function calls                    13.4457752664
 POWELL| Reached  92% of maximal function calls                    13.4457345387
 POWELL| Reached  94% of maximal function calls                    13.4455361101
 POWELL| Reached  96% of maximal function calls                    13.4455307699
 POWELL| Reached  98% of maximal function calls                    13.4455307699
 POWELL| Reached 100% of maximal function calls                    13.4455307699
 POWELL| Reached 100% of maximal function calls                    13.4455307699
 POWELL| Exceeding maximum number of steps
 POWELL| Reached 100% of maximal function calls                    13.4455307699
 POWELL| RMS average of variables                                   0.0000984294
 POWELL| Start optimization   8 of total 100               rhobeg =   0.00034725
 POWELL| Inital value of function                                  13.4455307699
 POWELL| Reached   6% of maximal function calls                    13.4455307699
 POWELL| Reached   8% of maximal function calls                    13.4455307699
 POWELL| Reached  10% of maximal function calls                    13.4455307699
 POWELL| Reached  12% of maximal function calls                    13.4455307699
 POWELL| Reached  14% of maximal function calls                    13.4455307699
 POWELL| Reached  16% of maximal function calls                    13.4455307699
 POWELL| Reached  18% of maximal function calls                    13.4455307699
 POWELL| Reached  20% of maximal function calls                    13.4455307699
 POWELL| Reached  22% of maximal function calls                    13.3858502687
 POWELL| Reached  24% of maximal function calls                    13.3858502687
 POWELL| Reached  26% of maximal function calls                    13.3858502687
 POWELL| Reached  28% of maximal function calls                    13.3858502687
 POWELL| Reached  30% of maximal function calls                    13.3858502687
 POWELL| Reached  32% of maximal function calls                    13.3858502687
 POWELL| Reached  34% of maximal function calls                    13.3858502687
 POWELL| Reached  36% of maximal function calls                    13.3858502687
 POWELL| Reached  38% of maximal function calls                    13.3858502687
 POWELL| Reached  40% of maximal function calls                    13.3858502687
 POWELL| Reached  42% of maximal function calls                    13.3858502687
 POWELL| Reached  44% of maximal function calls                    13.3858502687
 POWELL| Reached  46% of maximal function calls                    13.3858502687
 POWELL| Reached  48% of maximal function calls                    13.3858502687
 POWELL| Reached  50% of maximal function calls                    13.3858502687
 POWELL| Reached  52% of maximal function calls                    13.3858502687
 POWELL| Reached  54% of maximal function calls                    13.3858502687
 POWELL| Reached  56% of maximal function calls                    13.3858502687
 POWELL| Reached  57% of maximal function calls                    13.3858502687
 POWELL| Reached  60% of maximal function calls                    13.3858502687
 POWELL| Reached  62% of maximal function calls                    13.3823682419
 POWELL| Reached  64% of maximal function calls                    13.3823682419
 POWELL| Reached  66% of maximal function calls                    13.3808512192
 POWELL| Reached  68% of maximal function calls                    13.3807269051
 POWELL| Reached  70% of maximal function calls                    13.3807269051
 POWELL| Reached  72% of maximal function calls                    13.3805053781
 POWELL| Reached  74% of maximal function calls                    13.3804462096
 POWELL| Reached  76% of maximal function calls                    13.3804462096
 POWELL| Reached  78% of maximal function calls                    13.3804462096
 POWELL| Reached  80% of maximal function calls                    13.3804462096
 POWELL| Reached  82% of maximal function calls                    13.3804392557
 POWELL| Reached  84% of maximal function calls                    13.3804249628
 POWELL| Reached  86% of maximal function calls                    13.3804249628
 POWELL| Reached  88% of maximal function calls                    13.3804204938
 POWELL| Reached  90% of maximal function calls                    13.3804204938
 POWELL| Reached  92% of maximal function calls                    13.3804204938
 POWELL| Reached  94% of maximal function calls                    13.3804204938
 POWELL| Reached  96% of maximal function calls                    13.3804204938
 POWELL| Reached  98% of maximal function calls                    13.3804204938
 POWELL| Reached 100% of maximal function calls                    13.3804175155
 POWELL| Reached 100% of maximal function calls                    13.3804175155
 POWELL| Exceeding maximum number of steps
 POWELL| Reached 100% of maximal function calls                    13.3804175155
 POWELL| RMS average of variables                                   0.0000975176
 POWELL| Start optimization   9 of total 100               rhobeg =   0.00034031
 POWELL| Inital value of function                                  13.3804175155
 POWELL| Reached   6% of maximal function calls                    13.3804175155
 POWELL| Reached   8% of maximal function calls                    13.3715273691
 POWELL| Reached  10% of maximal function calls                    13.3715273691
 POWELL| Reached  12% of maximal function calls                    13.3715273691
 POWELL| Reached  14% of maximal function calls                    13.3715273691
 POWELL| Reached  16% of maximal function calls                    13.3715273691
 POWELL| Reached  18% of maximal function calls                    13.3715273691
 POWELL| Reached  20% of maximal function calls                    13.3715273691
 POWELL| Reached  22% of maximal function calls                    13.3715273691
 POWELL| Reached  24% of maximal function calls                    13.3715273691
 POWELL| Reached  26% of maximal function calls                    13.3715273691
 POWELL| Reached  28% of maximal function calls                    13.3715273691
 POWELL| Reached  30% of maximal function calls                    13.3715273691
 POWELL| Reached  32% of maximal function calls                    13.3715273691
 POWELL| Reached  34% of maximal function calls                    13.3715273691
 POWELL| Reached  36% of maximal function calls                    13.3715273691
 POWELL| Reached  38% of maximal function calls                    13.3715273691
 POWELL| Reached  40% of maximal function calls                    13.3715273691
 POWELL| Reached  42% of maximal function calls                    13.3715273691
 POWELL| Reached  44% of maximal function calls                    13.2655064179
 POWELL| Reached  46% of maximal function calls                    13.2655064179
 POWELL| Reached  48% of maximal function calls                    13.2655064179
 POWELL| Reached  50% of maximal function calls                    13.2655064179
 POWELL| Reached  52% of maximal function calls                    13.2655064179
 POWELL| Reached  54% of maximal function calls                    13.2655064179
 POWELL| Reached  56% of maximal function calls                    13.2655064179
 POWELL| Reached  57% of maximal function calls                    13.2593744992
 POWELL| Reached  60% of maximal function calls                    13.2593744992
 POWELL| Reached  62% of maximal function calls                    13.2593744992
 POWELL| Reached  64% of maximal function calls                    13.2593744992
 POWELL| Reached  66% of maximal function calls                    13.2593744992
 POWELL| Reached  68% of maximal function calls                    13.2577161707
 POWELL| Reached  70% of maximal function calls                    13.2575881492
 POWELL| Reached  72% of maximal function calls                    13.2561619568
 POWELL| Reached  74% of maximal function calls                    13.2553670327
 POWELL| Reached  76% of maximal function calls                    13.2553625252
 POWELL| Reached  78% of maximal function calls                    13.2553544533
 POWELL| Reached  80% of maximal function calls                    13.2553476905
 POWELL| Reached  82% of maximal function calls                    13.2553449198
 POWELL| Reached  84% of maximal function calls                    13.2553449198
 POWELL| Reached  86% of maximal function calls                    13.2553449198
 POWELL| Reached  88% of maximal function calls                    13.2553449198
 POWELL| Reached  90% of maximal function calls                    13.2553449198
 POWELL| Reached  92% of maximal function calls                    13.2553449198
 POWELL| Reached  94% of maximal function calls                    13.2553449198
 POWELL| Reached  96% of maximal function calls                    13.2553449198
 POWELL| Reached  98% of maximal function calls                    13.2553449198
 POWELL| Reached 100% of maximal function calls                    13.2553449198
 POWELL| Reached 100% of maximal function calls                    13.2553449198
 POWELL| Exceeding maximum number of steps
 POWELL| Reached 100% of maximal function calls                    13.2553449198
 POWELL| RMS average of variables                                   0.0001039809
 POWELL| Start optimization  10 of total 100               rhobeg =   0.00033350
 POWELL| Inital value of function                                  13.2553449198
 POWELL| Reached   6% of maximal function calls                    13.2553449198
 POWELL| Reached   8% of maximal function calls                    13.2553449198
 POWELL| Reached  10% of maximal function calls                    13.2553449198
 POWELL| Reached  12% of maximal function calls                    13.2553449198
 POWELL| Reached  14% of maximal function calls                    13.2553449198
 POWELL| Reached  16% of maximal function calls                    13.2553449198
 POWELL| Reached  18% of maximal function calls                    13.2553449198
 POWELL| Reached  20% of maximal function calls                    13.2553449198
 POWELL| Reached  22% of maximal function calls                    13.2553449198
 POWELL| Reached  24% of maximal function calls                    13.2553449198
 POWELL| Reached  26% of maximal function calls                    13.2553449198
 POWELL| Reached  28% of maximal function calls                    13.2553449198
 POWELL| Reached  30% of maximal function calls                    13.2553449198
 POWELL| Reached  32% of maximal function calls                    13.2553449198
 POWELL| Reached  34% of maximal function calls                    13.2553449198
 POWELL| Reached  36% of maximal function calls                    13.2553449198
 POWELL| Reached  38% of maximal function calls                    13.2553449198
 POWELL| Reached  40% of maximal function calls                    13.2553449198
 POWELL| Reached  42% of maximal function calls                    13.2553449198
 POWELL| Reached  44% of maximal function calls                    13.2369731264
 POWELL| Reached  46% of maximal function calls                    13.2369731264
 POWELL| Reached  48% of maximal function calls                    13.2369731264
 POWELL| Reached  50% of maximal function calls                    13.2369731264
 POWELL| Reached  52% of maximal function calls                    13.2369731264
 POWELL| Reached  54% of maximal function calls                    13.2369731264
 POWELL| Reached  56% of maximal function calls                    13.2369731264
 POWELL| Reached  57% of maximal function calls                    13.2369731264
 POWELL| Reached  60% of maximal function calls                    13.2369731264
 POWELL| Reached  62% of maximal function calls                    13.2369731264
 POWELL| Reached  64% of maximal function calls                    13.2369731264
 POWELL| Reached  66% of maximal function calls                    13.2369731264
 POWELL| Reached  68% of maximal function calls                    13.2357096599
 POWELL| Reached  70% of maximal function calls                    13.2356707093
 POWELL| Reached  72% of maximal function calls                    13.2289547425
 POWELL| Reached  74% of maximal function calls                    13.2242947177
 POWELL| Reached  76% of maximal function calls                    13.2242811650
 POWELL| Reached  78% of maximal function calls                    13.2242811650
 POWELL| Reached  80% of maximal function calls                    13.2242766178
 POWELL| Reached  82% of maximal function calls                    13.2242766178
 POWELL| Reached  84% of maximal function calls                    13.2241746974
 POWELL| Reached  86% of maximal function calls                    13.2241473824
 POWELL| Reached  88% of maximal function calls                    13.2241406619
 POWELL| Reached  90% of maximal function calls                    13.2239644180
 POWELL| Reached  92% of maximal function calls                    13.2239644180
 POWELL| Reached  94% of maximal function calls                    13.2239644180
 POWELL| Reached  96% of maximal function calls                    13.2239644180
 POWELL| Reached  98% of maximal function calls                    13.2239644180
 POWELL| Reached 100% of maximal function calls                    13.2239644180
 POWELL| Reached 100% of maximal function calls                    13.2239644180
 POWELL| Exceeding maximum number of steps
 POWELL| Reached 100% of maximal function calls                    13.2239644180
 POWELL| RMS average of variables                                   0.0000926428
 POWELL| Start optimization  11 of total 100               rhobeg =   0.00032683
 POWELL| Inital value of function                                  13.2239644180
 POWELL| Reached   6% of maximal function calls                    13.2239644180
 POWELL| Reached   8% of maximal function calls                    13.2239644180
 POWELL| Reached  10% of maximal function calls                    13.2239644180
 POWELL| Reached  12% of maximal function calls                    13.2239644180
 POWELL| Reached  14% of maximal function calls                    13.2239644180
 POWELL| Reached  16% of maximal function calls                    13.2239644180
 POWELL| Reached  18% of maximal function calls                    13.2239644180
 POWELL| Reached  20% of maximal function calls                    13.2239644180
 POWELL| Reached  22% of maximal function calls                    13.2154498624
 POWELL| Reached  24% of maximal function calls                    13.2154498624
 POWELL| Reached  26% of maximal function calls                    13.2154498624
 POWELL| Reached  28% of maximal function calls                    13.2154498624
 POWELL| Reached  30% of maximal function calls                    13.2154498624
 POWELL| Reached  32% of maximal function calls                    13.2154498624
 POWELL| Reached  34% of maximal function calls                    13.1866744488
 POWELL| Reached  36% of maximal function calls                    13.1866744488
 POWELL| Reached  38% of maximal function calls                    13.1866744488
 POWELL| Reached  40% of maximal function calls                    13.1866744488
 POWELL| Reached  42% of maximal function calls                    13.1866744488
 POWELL| Reached  44% of maximal function calls                    13.1866744488
 POWELL| Reached  46% of maximal function calls                    13.1866744488
 POWELL| Reached  48% of maximal function calls                    13.1866744488
 POWELL| Reached  50% of maximal function calls                    13.1866744488
 POWELL| Reached  52% of maximal function calls                    13.1866744488
 POWELL| Reached  54% of maximal function calls                    13.1866744488
 POWELL| Reached  56% of maximal function calls                    13.1866744488
 POWELL| Reached  57% of maximal function calls                    13.1846514505
 POWELL| Reached  60% of maximal function calls                    13.1846514505
 POWELL| Reached  62% of maximal function calls                    13.1846514505
 POWELL| Reached  64% of maximal function calls                    13.1846514505
 POWELL| Reached  66% of maximal function calls                    13.1830414101
 POWELL| Reached  68% of maximal function calls                    13.1817891947
 POWELL| Reached  70% of maximal function calls                    13.1817891947
 POWELL| Reached  72% of maximal function calls                    13.1816526083
 POWELL| Reached  74% of maximal function calls                    13.1815396063
 POWELL| Reached  76% of maximal function calls                    13.1815396063
 POWELL| Reached  78% of maximal function calls                    13.1813055758
 POWELL| Reached  80% of maximal function calls                    13.1811380237
 POWELL| Reached  82% of maximal function calls                    13.1811321136
 POWELL| Reached  84% of maximal function calls                    13.1811200007
 POWELL| Reached  86% of maximal function calls                    13.1811200007
 POWELL| Reached  88% of maximal function calls                    13.1811193588
 POWELL| Reached  90% of maximal function calls                    13.1811162993
 POWELL| Reached  92% of maximal function calls                    13.1811162157
 POWELL| Reached  94% of maximal function calls                    13.1811153774
 POWELL| Reached  96% of maximal function calls                    13.1811153362
 POWELL| Reached  98% of maximal function calls                    13.1811153362
 POWELL| Reached 100% of maximal function calls                    13.1811153362
 POWELL| Reached 100% of maximal function calls                    13.1811117261
 POWELL| Exceeding maximum number of steps
 POWELL| Reached 100% of maximal function calls                    13.1811117261
 POWELL| RMS average of variables                                   0.0001004170
 POWELL| Start optimization  12 of total 100               rhobeg =   0.00032029
 POWELL| Inital value of function                                  13.1811117261
 POWELL| Reached   6% of maximal function calls                    13.1811117261
 POWELL| Reached   8% of maximal function calls                    13.1811117261
 POWELL| Reached  10% of maximal function calls                    13.1811117261
 POWELL| Reached  12% of maximal function calls                    13.1811117261
 POWELL| Reached  14% of maximal function calls                    13.1811117261
 POWELL| Reached  16% of maximal function calls                    13.1811117261
 POWELL| Reached  18% of maximal function calls                    13.1811117261
 POWELL| Reached  20% of maximal function calls                    13.1811117261
 POWELL| Reached  22% of maximal function calls                    13.1811117261
 POWELL| Reached  24% of maximal function calls                    13.1811117261
 POWELL| Reached  26% of maximal function calls                    13.1811117261
 POWELL| Reached  28% of maximal function calls                    13.1811117261
 POWELL| Reached  30% of maximal function calls                    13.1811117261
 POWELL| Reached  32% of maximal function calls                    13.1811117261
 POWELL| Reached  34% of maximal function calls                    13.1781666428
 POWELL| Reached  36% of maximal function calls                    13.1781666428
 POWELL| Reached  38% of maximal function calls                    13.1781666428
 POWELL| Reached  40% of maximal function calls                    13.1781666428
 POWELL| Reached  42% of maximal function calls                    13.1781666428
 POWELL| Reached  44% of maximal function calls                    13.1781666428
 POWELL| Reached  46% of maximal function calls                    13.1781666428
 POWELL| Reached  48% of maximal function calls                    13.1781666428
 POWELL| Reached  50% of maximal function calls                    13.1781666428
 POWELL| Reached  52% of maximal function calls                    13.1781666428
 POWELL| Reached  54% of maximal function calls                    13.1781666428
 POWELL| Reached  56% of maximal function calls                    13.1781666428
 POWELL| Reached  57% of maximal function calls                    13.1781666428
 POWELL| Reached  60% of maximal function calls                    13.1781666428
 POWELL| Reached  62% of maximal function calls                    13.1755296430
 POWELL| Reached  64% of maximal function calls                    13.1755296430
 POWELL| Reached  66% of maximal function calls                    13.1739049674
 POWELL| Reached  68% of maximal function calls                    13.1727393187
 POWELL| Reached  70% of maximal function calls                    13.1727393187
 POWELL| Reached  72% of maximal function calls                    13.1724069455
 POWELL| Reached  74% of maximal function calls                    13.1724069455
 POWELL| Reached  76% of maximal function calls                    13.1723959723
 POWELL| Reached  78% of maximal function calls                    13.1723959723
 POWELL| Reached  80% of maximal function calls                    13.1723959723
 POWELL| Reached  82% of maximal function calls                    13.1723959723
 POWELL| Reached  84% of maximal function calls                    13.1723959723
 POWELL| Reached  86% of maximal function calls                    13.1723959723
 POWELL| Reached  88% of maximal function calls                    13.1723878391
 POWELL| Reached  90% of maximal function calls                    13.1723878391
 POWELL| Reached  92% of maximal function calls                    13.1723871306
 POWELL| Reached  94% of maximal function calls                    13.1723827677
 POWELL| Reached  96% of maximal function calls                    13.1723799980
 POWELL| Reached  98% of maximal function calls                    13.1723799980
 POWELL| Reached 100% of maximal function calls                    13.1722168907
 POWELL| Reached 100% of maximal function calls                    13.1722168907
 POWELL| Exceeding maximum number of steps
 POWELL| Reached 100% of maximal function calls                    13.1722168907
 POWELL| RMS average of variables                                   0.0000898846
 POWELL| Start optimization  13 of total 100               rhobeg =   0.00031389
 POWELL| Inital value of function                                  13.1722168907
 POWELL| Reached   6% of maximal function calls                    13.1722168907
 POWELL| Reached   8% of maximal function calls                    13.1722168907
 POWELL| Reached  10% of maximal function calls                    13.1722168907
 POWELL| Reached  12% of maximal function calls                    13.1722168907
 POWELL| Reached  14% of maximal function calls                    13.1722168907
 POWELL| Reached  16% of maximal function calls                    13.1722168907
 POWELL| Reached  18% of maximal function calls                    13.1722168907
 POWELL| Reached  20% of maximal function calls                    13.1722168907
 POWELL| Reached  22% of maximal function calls                    13.1722168907
 POWELL| Reached  24% of maximal function calls                    13.1722168907
 POWELL| Reached  26% of maximal function calls                    13.1722168907
 POWELL| Reached  28% of maximal function calls                    13.1722168907
 POWELL| Reached  30% of maximal function calls                    13.1722168907
 POWELL| Reached  32% of maximal function calls                    13.1722168907
 POWELL| Reached  34% of maximal function calls                    13.1722168907
 POWELL| Reached  36% of maximal function calls                    13.1722168907
 POWELL| Reached  38% of maximal function calls                    13.1722168907
 POWELL| Reached  40% of maximal function calls                    13.1722168907
 POWELL| Reached  42% of maximal function calls                    13.1722168907
 POWELL| Reached  44% of maximal function calls                    13.1713661467
 POWELL| Reached  46% of maximal function calls                    13.1713661467
 POWELL| Reached  48% of maximal function calls                    13.1713661467
 POWELL| Reached  50% of maximal function calls                    13.1713661467
 POWELL| Reached  52% of maximal function calls                    13.1713661467
 POWELL| Reached  54% of maximal function calls                    13.1713661467
 POWELL| Reached  56% of maximal function calls                    13.1713661467
 POWELL| Reached  57% of maximal function calls                    13.1713661467
 POWELL| Reached  60% of maximal function calls                    13.1713661467
 POWELL| Reached  62% of maximal function calls                    13.1713661467
 POWELL| Reached  64% of maximal function calls                    13.1713661467
 POWELL| Reached  66% of maximal function calls                    13.1713661467
 POWELL| Reached  68% of maximal function calls                    13.1701368075
 POWELL| Reached  70% of maximal function calls                    13.1701019394
 POWELL| Reached  72% of maximal function calls                    13.1647197750
 POWELL| Reached  74% of maximal function calls                    13.1610199436
 POWELL| Reached  76% of maximal function calls                    13.1610097857
 POWELL| Reached  78% of maximal function calls                    13.1610097857
 POWELL| Reached  80% of maximal function calls                    13.1610097857
 POWELL| Reached  82% of maximal function calls                    13.1610097857
 POWELL| Reached  84% of maximal function calls                    13.1609855453
 POWELL| Reached  86% of maximal function calls                    13.1609855453
 POWELL| Reached  88% of maximal function calls                    13.1609547785
 POWELL| Reached  90% of maximal function calls                    13.1608766379
 POWELL| Reached  92% of maximal function calls                    13.1608722193
 POWELL| Reached  94% of maximal function calls                    13.1607379853
 POWELL| Reached  96% of maximal function calls                    13.1607379853
 POWELL| Reached  98% of maximal function calls                    13.1607379853
 POWELL| Reached 100% of maximal function calls                    13.1606715656
 POWELL| Reached 100% of maximal function calls                    13.1606715656
 POWELL| Exceeding maximum number of steps
 POWELL| Reached 100% of maximal function calls                    13.1606715656
 POWELL| RMS average of variables                                   0.0000871984
 POWELL| Start optimization  14 of total 100               rhobeg =   0.00030761
 POWELL| Inital value of function                                  13.1606715656
 POWELL| Reached   6% of maximal function calls                    13.1606715656
 POWELL| Reached   8% of maximal function calls                    13.1606715656
 POWELL| Reached  10% of maximal function calls                    13.1606715656
 POWELL| Reached  12% of maximal function calls                    13.1606715656
 POWELL| Reached  14% of maximal function calls                    13.1606715656
 POWELL| Reached  16% of maximal function calls                    13.1606715656
 POWELL| Reached  18% of maximal function calls                    13.1606715656
 POWELL| Reached  20% of maximal function calls                    13.1606715656
 POWELL| Reached  22% of maximal function calls                    13.1006827647
 POWELL| Reached  24% of maximal function calls                    13.1006827647
 POWELL| Reached  26% of maximal function calls                    13.1006827647
 POWELL| Reached  28% of maximal function calls                    13.1006827647
 POWELL| Reached  30% of maximal function calls                    13.1006827647
 POWELL| Reached  32% of maximal function calls                    13.1006827647
 POWELL| Reached  34% of maximal function calls                    13.1006827647
 POWELL| Reached  36% of maximal function calls                    13.1006827647
 POWELL| Reached  38% of maximal function calls                    13.1006827647
 POWELL| Reached  40% of maximal function calls                    13.1006827647
 POWELL| Reached  42% of maximal function calls                    13.1006827647
 POWELL| Reached  44% of maximal function calls                    13.1006827647
 POWELL| Reached  46% of maximal function calls                    13.1006827647
 POWELL| Reached  48% of maximal function calls                    13.1006827647
 POWELL| Reached  50% of maximal function calls                    13.1006827647
 POWELL| Reached  52% of maximal function calls                    13.1006827647
 POWELL| Reached  54% of maximal function calls                    13.1006827647
 POWELL| Reached  56% of maximal function calls                    13.1006827647
 POWELL| Reached  57% of maximal function calls                    13.1006827647
 POWELL| Reached  60% of maximal function calls                    13.1006827647
 POWELL| Reached  62% of maximal function calls                    13.0974043427
 POWELL| Reached  64% of maximal function calls                    13.0974043427
 POWELL| Reached  66% of maximal function calls                    13.0960259215
 POWELL| Reached  68% of maximal function calls                    13.0958700858
 POWELL| Reached  70% of maximal function calls                    13.0958700858
 POWELL| Reached  72% of maximal function calls                    13.0956892896
 POWELL| Reached  74% of maximal function calls                    13.0956390497
 POWELL| Reached  76% of maximal function calls                    13.0956390497
 POWELL| Reached  78% of maximal function calls                    13.0956390497
 POWELL| Reached  80% of maximal function calls                    13.0956390497
 POWELL| Reached  82% of maximal function calls                    13.0956390497
 POWELL| Reached  84% of maximal function calls                    13.0956390497
 POWELL| Reached  86% of maximal function calls                    13.0956390497
 POWELL| Reached  88% of maximal function calls                    13.0956390497
 POWELL| Reached  90% of maximal function calls                    13.0956390497
 POWELL| Reached  92% of maximal function calls                    13.0956201763
 POWELL| Reached  94% of maximal function calls                    13.0955993687
 POWELL| Reached  96% of maximal function calls                    13.0955993687
 POWELL| Reached  98% of maximal function calls                    13.0955993687
 POWELL| Reached 100% of maximal function calls                    13.0955993687
 POWELL| Reached 100% of maximal function calls                    13.0955993687
 POWELL| Exceeding maximum number of steps
 POWELL| Reached 100% of maximal function calls                    13.0955993687
 POWELL| RMS average of variables                                   0.0000863853
 POWELL| Start optimization  15 of total 100               rhobeg =   0.00030146
 POWELL| Inital value of function                                  13.0955993687
 POWELL| Reached   6% of maximal function calls                    13.0955993687
 POWELL| Reached   8% of maximal function calls                    13.0796452483
 POWELL| Reached  10% of maximal function calls                    13.0796452483
 POWELL| Reached  12% of maximal function calls                    13.0796452483
 POWELL| Reached  14% of maximal function calls                    13.0796452483
 POWELL| Reached  16% of maximal function calls                    13.0796452483
 POWELL| Reached  18% of maximal function calls                    13.0796452483
 POWELL| Reached  20% of maximal function calls                    13.0796452483
 POWELL| Reached  22% of maximal function calls                    13.0796452483
 POWELL| Reached  24% of maximal function calls                    13.0796452483
 POWELL| Reached  26% of maximal function calls                    13.0796452483
 POWELL| Reached  28% of maximal function calls                    13.0796452483
 POWELL| Reached  30% of maximal function calls                    13.0796452483
 POWELL| Reached  32% of maximal function calls                    13.0796452483
 POWELL| Reached  34% of maximal function calls                    13.0796452483
 POWELL| Reached  36% of maximal function calls                    13.0796452483
 POWELL| Reached  38% of maximal function calls                    13.0796452483
 POWELL| Reached  40% of maximal function calls                    13.0796452483
 POWELL| Reached  42% of maximal function calls                    13.0796452483
 POWELL| Reached  44% of maximal function calls                    13.0044016029
 POWELL| Reached  46% of maximal function calls                    13.0044016029
 POWELL| Reached  48% of maximal function calls                    13.0044016029
 POWELL| Reached  50% of maximal function calls                    13.0044016029
 POWELL| Reached  52% of maximal function calls                    13.0044016029
 POWELL| Reached  54% of maximal function calls                    13.0044016029
 POWELL| Reached  56% of maximal function calls                    13.0044016029
 POWELL| Reached  57% of maximal function calls                    12.9986950566
 POWELL| Reached  60% of maximal function calls                    12.9986950566
 POWELL| Reached  62% of maximal function calls                    12.9986950566
 POWELL| Reached  64% of maximal function calls                    12.9986950566
 POWELL| Reached  66% of maximal function calls                    12.9986950566
 POWELL| Reached  68% of maximal function calls                    12.9972748687
 POWELL| Reached  70% of maximal function calls                    12.9971607374
 POWELL| Reached  72% of maximal function calls                    12.9964143798
 POWELL| Reached  74% of maximal function calls                    12.9960680628
 POWELL| Reached  76% of maximal function calls                    12.9960668666
 POWELL| Reached  78% of maximal function calls                    12.9960612970
 POWELL| Reached  80% of maximal function calls                    12.9960612970
 POWELL| Reached  82% of maximal function calls                    12.9960612970
 POWELL| Reached  84% of maximal function calls                    12.9960612970
 POWELL| Reached  86% of maximal function calls                    12.9960612970
 POWELL| Reached  88% of maximal function calls                    12.9960612970
 POWELL| Reached  90% of maximal function calls                    12.9960612970
 POWELL| Reached  92% of maximal function calls                    12.9960593719
 POWELL| Reached  94% of maximal function calls                    12.9960237421
 POWELL| Reached  96% of maximal function calls                    12.9960058140
 POWELL| Reached  98% of maximal function calls                    12.9959711052
 POWELL| Reached 100% of maximal function calls                    12.9958707647
 POWELL| Reached 100% of maximal function calls                    12.9958662791
 POWELL| Exceeding maximum number of steps
 POWELL| Reached 100% of maximal function calls                    12.9958662791
 POWELL| RMS average of variables                                   0.0000921129
 POWELL| Start optimization  16 of total 100               rhobeg =   0.00029543
 POWELL| Inital value of function                                  12.9958662791
 POWELL| Reached   6% of maximal function calls                    12.9958662791
 POWELL| Reached   8% of maximal function calls                    12.9958662791
 POWELL| Reached  10% of maximal function calls                    12.9958662791
 POWELL| Reached  12% of maximal function calls                    12.9958662791
 POWELL| Reached  14% of maximal function calls                    12.9958662791
 POWELL| Reached  16% of maximal function calls                    12.9958662791
 POWELL| Reached  18% of maximal function calls                    12.9958662791
 POWELL| Reached  20% of maximal function calls                    12.9958662791
 POWELL| Reached  22% of maximal function calls                    12.9958662791
 POWELL| Reached  24% of maximal function calls                    12.9958662791
 POWELL| Reached  26% of maximal function calls                    12.9958662791
 POWELL| Reached  28% of maximal function calls                    12.9958662791
 POWELL| Reached  30% of maximal function calls                    12.9958662791
 POWELL| Reached  32% of maximal function calls                    12.9958662791
 POWELL| Reached  34% of maximal function calls                    12.9958662791
 POWELL| Reached  36% of maximal function calls                    12.9958662791
 POWELL| Reached  38% of maximal function calls                    12.9958662791
 POWELL| Reached  40% of maximal function calls                    12.9958662791
 POWELL| Reached  42% of maximal function calls                    12.9958662791
 POWELL| Reached  44% of maximal function calls                    12.9672443477
 POWELL| Reached  46% of maximal function calls                    12.9672443477
 POWELL| Reached  48% of maximal function calls                    12.9672443477
 POWELL| Reached  50% of maximal function calls                    12.9672443477
[...]
 POWELL| RMS average of variables                                   0.0000160288
 POWELL| Start optimization  98 of total 100               rhobeg =   0.00005636
 POWELL| Inital value of function                                   6.9384079680
 POWELL| Reached   6% of maximal function calls                     6.9384079680
 POWELL| Reached   8% of maximal function calls                     6.9300469928
 POWELL| Reached  10% of maximal function calls                     6.9075792807
 POWELL| Reached  12% of maximal function calls                     6.9075792807
 POWELL| Reached  14% of maximal function calls                     6.9075792807
 POWELL| Reached  16% of maximal function calls                     6.9075792807
 POWELL| Reached  18% of maximal function calls                     6.9075792807
 POWELL| Reached  20% of maximal function calls                     6.9075792807
 POWELL| Reached  22% of maximal function calls                     6.9075792807
 POWELL| Reached  24% of maximal function calls                     6.9075792807
 POWELL| Reached  26% of maximal function calls                     6.9075792807
 POWELL| Reached  28% of maximal function calls                     6.9075792807
 POWELL| Reached  30% of maximal function calls                     6.9075792807
 POWELL| Reached  32% of maximal function calls                     6.9075792807
 POWELL| Reached  34% of maximal function calls                     6.9075792807
 POWELL| Reached  36% of maximal function calls                     6.9075792807
 POWELL| Reached  38% of maximal function calls                     6.7986970267
 POWELL| Reached  40% of maximal function calls                     6.7986970267
 POWELL| Reached  42% of maximal function calls                     6.7986970267
 POWELL| Reached  44% of maximal function calls                     6.7986970267
 POWELL| Reached  46% of maximal function calls                     6.7986970267
 POWELL| Reached  48% of maximal function calls                     6.7986970267
 POWELL| Reached  50% of maximal function calls                     6.7986970267
 POWELL| Reached  52% of maximal function calls                     6.7986970267
 POWELL| Reached  54% of maximal function calls                     6.7986970267
 POWELL| Reached  56% of maximal function calls                     6.7986970267
 POWELL| Reached  57% of maximal function calls                     6.7974921896
 POWELL| Reached  60% of maximal function calls                     6.7974921896
 POWELL| Reached  62% of maximal function calls                     6.7974921896
 POWELL| Reached  64% of maximal function calls                     6.7974921896
 POWELL| Reached  66% of maximal function calls                     6.7974090309
 POWELL| Reached  68% of maximal function calls                     6.7973541045
 POWELL| Reached  70% of maximal function calls                     6.7971926824
 POWELL| Reached  72% of maximal function calls                     6.7959080025
 POWELL| Reached  74% of maximal function calls                     6.7949876171
 POWELL| Reached  76% of maximal function calls                     6.7949870727
 POWELL| Reached  78% of maximal function calls                     6.7949826523
 POWELL| Reached  80% of maximal function calls                     6.7949826523
 POWELL| Reached  82% of maximal function calls                     6.7949826523
 POWELL| Reached  84% of maximal function calls                     6.7949826523
 POWELL| Reached  86% of maximal function calls                     6.7949811828
 POWELL| Reached  88% of maximal function calls                     6.7949811828
 POWELL| Reached  90% of maximal function calls                     6.7949811828
 POWELL| Reached  92% of maximal function calls                     6.7949811828
 POWELL| Reached  94% of maximal function calls                     6.7949809581
 POWELL| Reached  96% of maximal function calls                     6.7949740858
 POWELL| Reached  98% of maximal function calls                     6.7949686258
 POWELL| Reached 100% of maximal function calls                     6.7948691303
 POWELL| Reached 100% of maximal function calls                     6.7948650765
 POWELL| Exceeding maximum number of steps
 POWELL| Reached 100% of maximal function calls                     6.7948650765
 POWELL| RMS average of variables                                   0.0000173142
 POWELL| Start optimization  99 of total 100               rhobeg =   0.00005524
 POWELL| Inital value of function                                   6.7948650765
 POWELL| Reached   6% of maximal function calls                     6.7948650765
 POWELL| Reached   8% of maximal function calls                     6.7948650765
 POWELL| Reached  10% of maximal function calls                     6.7948650765
 POWELL| Reached  12% of maximal function calls                     6.7948650765
 POWELL| Reached  14% of maximal function calls                     6.7948650765
 POWELL| Reached  16% of maximal function calls                     6.7948650765
 POWELL| Reached  18% of maximal function calls                     6.7774593583
 POWELL| Reached  20% of maximal function calls                     6.7774593583
 POWELL| Reached  22% of maximal function calls                     6.7310618925
 POWELL| Reached  24% of maximal function calls                     6.7310618925
 POWELL| Reached  26% of maximal function calls                     6.7310618925
 POWELL| Reached  28% of maximal function calls                     6.7310618925
 POWELL| Reached  30% of maximal function calls                     6.7310618925
 POWELL| Reached  32% of maximal function calls                     6.7310618925
 POWELL| Reached  34% of maximal function calls                     6.7310618925
 POWELL| Reached  36% of maximal function calls                     6.7310618925
 POWELL| Reached  38% of maximal function calls                     6.7310618925
 POWELL| Reached  40% of maximal function calls                     6.7310618925
 POWELL| Reached  42% of maximal function calls                     6.7310618925
 POWELL| Reached  44% of maximal function calls                     6.7310618925
 POWELL| Reached  46% of maximal function calls                     6.7310618925
 POWELL| Reached  48% of maximal function calls                     6.7310618925
 POWELL| Reached  50% of maximal function calls                     6.7310618925
 POWELL| Reached  52% of maximal function calls                     6.7310618925
 POWELL| Reached  54% of maximal function calls                     6.7310618925
 POWELL| Reached  56% of maximal function calls                     6.7310618925
 POWELL| Reached  57% of maximal function calls                     6.7253396494
 POWELL| Reached  60% of maximal function calls                     6.7253396494
 POWELL| Reached  62% of maximal function calls                     6.7253396494
 POWELL| Reached  64% of maximal function calls                     6.7253396494
 POWELL| Reached  66% of maximal function calls                     6.7253396494
 POWELL| Reached  68% of maximal function calls                     6.7252362914
 POWELL| Reached  70% of maximal function calls                     6.7251819651
 POWELL| Reached  72% of maximal function calls                     6.7242931906
 POWELL| Reached  74% of maximal function calls                     6.7236200440
 POWELL| Reached  76% of maximal function calls                     6.7236188165
 POWELL| Reached  78% of maximal function calls                     6.7236139273
 POWELL| Reached  80% of maximal function calls                     6.7236103529
 POWELL| Reached  82% of maximal function calls                     6.7236103529
 POWELL| Reached  84% of maximal function calls                     6.7236103529
 POWELL| Reached  86% of maximal function calls                     6.7236103529
 POWELL| Reached  88% of maximal function calls                     6.7236094811
 POWELL| Reached  90% of maximal function calls                     6.7236094811
 POWELL| Reached  92% of maximal function calls                     6.7236094811
 POWELL| Reached  94% of maximal function calls                     6.7236094811
 POWELL| Reached  96% of maximal function calls                     6.7236078212
 POWELL| Reached  98% of maximal function calls                     6.7236078212
 POWELL| Reached 100% of maximal function calls                     6.7235887011
 POWELL| Reached 100% of maximal function calls                     6.7235887011
 POWELL| Exceeding maximum number of steps
 POWELL| Reached 100% of maximal function calls                     6.7235887011
 POWELL| RMS average of variables                                   0.0000168775
 POWELL| Start optimization 100 of total 100               rhobeg =   0.00005413
 POWELL| Inital value of function                                   6.7235887011
 POWELL| Reached   6% of maximal function calls                     6.7235887011
 POWELL| Reached   8% of maximal function calls                     6.7235887011
 POWELL| Reached  10% of maximal function calls                     6.7235887011
 POWELL| Reached  12% of maximal function calls                     6.7235887011
 POWELL| Reached  14% of maximal function calls                     6.7229910312
 POWELL| Reached  16% of maximal function calls                     6.7229910312
 POWELL| Reached  18% of maximal function calls                     6.7126319969
 POWELL| Reached  20% of maximal function calls                     6.7126319969
 POWELL| Reached  22% of maximal function calls                     6.6743837079
 POWELL| Reached  24% of maximal function calls                     6.6743837079
 POWELL| Reached  26% of maximal function calls                     6.6743837079
 POWELL| Reached  28% of maximal function calls                     6.6743837079
 POWELL| Reached  30% of maximal function calls                     6.6743837079
 POWELL| Reached  32% of maximal function calls                     6.6743837079
 POWELL| Reached  34% of maximal function calls                     6.6743837079
 POWELL| Reached  36% of maximal function calls                     6.6743837079
 POWELL| Reached  38% of maximal function calls                     6.6743837079
 POWELL| Reached  40% of maximal function calls                     6.6743837079
 POWELL| Reached  42% of maximal function calls                     6.6743837079
 POWELL| Reached  44% of maximal function calls                     6.6743837079
 POWELL| Reached  46% of maximal function calls                     6.6743837079
 POWELL| Reached  48% of maximal function calls                     6.6743837079
 POWELL| Reached  50% of maximal function calls                     6.6743837079
 POWELL| Reached  52% of maximal function calls                     6.6743837079
 POWELL| Reached  54% of maximal function calls                     6.6743837079
 POWELL| Reached  56% of maximal function calls                     6.6743837079
 POWELL| Reached  57% of maximal function calls                     6.6700951852
 POWELL| Reached  60% of maximal function calls                     6.6700951852
 POWELL| Reached  62% of maximal function calls                     6.6700951852
 POWELL| Reached  64% of maximal function calls                     6.6700951852
 POWELL| Reached  66% of maximal function calls                     6.6700951852
 POWELL| Reached  68% of maximal function calls                     6.6699709480
 POWELL| Reached  70% of maximal function calls                     6.6699280486
 POWELL| Reached  72% of maximal function calls                     6.6694128839
 POWELL| Reached  74% of maximal function calls                     6.6690192450
 POWELL| Reached  76% of maximal function calls                     6.6690186163
 POWELL| Reached  78% of maximal function calls                     6.6690152249
 POWELL| Reached  80% of maximal function calls                     6.6690123064
 POWELL| Reached  82% of maximal function calls                     6.6690123064
 POWELL| Reached  84% of maximal function calls                     6.6690123064
 POWELL| Reached  86% of maximal function calls                     6.6690123064
 POWELL| Reached  88% of maximal function calls                     6.6690120565
 POWELL| Reached  90% of maximal function calls                     6.6690120565
 POWELL| Reached  92% of maximal function calls                     6.6690120565
 POWELL| Reached  94% of maximal function calls                     6.6690120565
 POWELL| Reached  96% of maximal function calls                     6.6690112669
 POWELL| Reached  98% of maximal function calls                     6.6690112669
 POWELL| Reached 100% of maximal function calls                     6.6690005913
 POWELL| Reached 100% of maximal function calls                     6.6689936307
 POWELL| Exceeding maximum number of steps
 POWELL| Reached 100% of maximal function calls                     6.6689936307
 POWELL| RMS average of variables                                   0.0000165401
 POWELL| Number of function evaluations                                       50
 POWELL| Final value of function                                    6.6689936307

 POWELL| Final errors of target values

 Reference configuration          1               Method number                1
    L    N    Occupation      Eigenvalue [eV]           dE [eV]          dCharge 
    0    1          2.00      -102.3416336614 SC  -0.016482[13]     0.000003[ X]
    0    2          2.00        -5.4618438542 VA   0.002370[74]     0.001649[ 0]
    0    3          0.00         0.9438544813 U1  -0.002651[ X]     0.000499[ X]
    0    4          0.00         6.8490134516 U2  -0.012591[ X]     0.000957[ 0]
    1    1          6.00       -65.5772998969 SC   0.005981[ 1]     0.000008[ X]
    1    2          0.00        -1.2202999651 U1   0.019014[ 9]    -0.001535[ X]
    1    3          0.00         2.5082495000 U2   0.013146[ X]    -0.000271[ 0]
    2    1          7.00        -8.2011367692 VA   0.000751[ 4]     0.000471[ 0]
    2    2          0.00         1.9074259177 U1   0.002207[ X]    -0.000164[ X]
    2    3          0.00         6.0967592052 U2   0.008139[ X]    -0.001265[ 0]
    3    1          0.00         3.9399959913 U1   0.001149[ X]    -0.000007[ X]
    s-states N=    1                   Wavefunction at r=0:        -0.109711[ 0]
    s-states N=    2                   Wavefunction at r=0:        -0.288852[ 0]
    s-states N=    3                   Wavefunction at r=0:        -0.152000[ 0]
    s-states N=    4                   Wavefunction at r=0:        -0.239867[ 0]

 Number of target values reached:                                      12 of  19



                             NORMAL TERMINATION OF     
                                                       
                           ****  ******  ****   ****   
                          **  ** ****** **  ** ******  
                          ******   **   **  ** **  **  
                          **  **   **    ****  **  **  


 -------------------------------------------------------------------------------
 -                                                                             -
 -                                DBCSR STATISTICS                             -
 -                                                                             -
 -------------------------------------------------------------------------------
 COUNTER                                    TOTAL       BLAS       SMM       ACC
 flops inhomo. stacks                           0       0.0%      0.0%      0.0%
 flops total                         0.000000E+00       0.0%      0.0%      0.0%
 flops max/rank                      0.000000E+00       0.0%      0.0%      0.0%
 matmuls inhomo. stacks                         0       0.0%      0.0%      0.0%
 matmuls total                                  0       0.0%      0.0%      0.0%
 number of processed stacks                     0       0.0%      0.0%      0.0%
 average stack size                                     0.0       0.0       0.0
 marketing flops                     0.000000E+00
 -------------------------------------------------------------------------------

 MEMORY| Estimated peak process memory [MiB]                                  49

 -------------------------------------------------------------------------------
 -                                                                             -
 -                           R E F E R E N C E S                               -
 -                                                                             -
 -------------------------------------------------------------------------------
 
 CP2K version 7.0 (Development Version), the CP2K developers group (2018).
 CP2K is freely available from https://www.cp2k.org/ .

 Schuett, Ole; Messmer, Peter; Hutter, Juerg; VandeVondele, Joost. 
 Electronic Structure Calculations on Graphics Processing Units, John Wiley & Sons, Ltd, 173-190 (2016). 
 GPU-Accelerated Sparse Matrix-Matrix Multiplication for Linear Scaling Density Functional Theory.
 http://dx.doi.org/10.1002/9781118670712.ch8


 Borstnik, U; VandeVondele, J; Weber, V; Hutter, J. 
 PARALLEL COMPUTING, 40 (5-6), 47-58 (2014). 
 Sparse matrix multiplication: The distributed block-compressed sparse
 row library.
 http://dx.doi.org/10.1016/j.parco.2014.03.012


 Hutter, J; Iannuzzi, M; Schiffmann, F; VandeVondele, J. 
 WILEY INTERDISCIPLINARY REVIEWS-COMPUTATIONAL MOLECULAR SCIENCE, 4 (1), 15-25 (2014). 
 CP2K: atomistic simulations of condensed matter systems.
 http://dx.doi.org/10.1002/wcms.1159


 Frigo, M; Johnson, SG. 
 PROCEEDINGS OF THE IEEE, 93 (2), 216-231 (2005). 
 The design and implementation of FFTW3.
 http://dx.doi.org/10.1109/JPROC.2004.840301


 Perdew, JP; Burke, K; Ernzerhof, M. 
 PHYSICAL REVIEW LETTERS, 77 (18), 3865-3868 (1996). 
 Generalized gradient approximation made simple.
 http://dx.doi.org/10.1103/PhysRevLett.77.3865


 -------------------------------------------------------------------------------
 -                                                                             -
 -                                T I M I N G                                  -
 -                                                                             -
 -------------------------------------------------------------------------------
 SUBROUTINE                       CALLS  ASD         SELF TIME        TOTAL TIME
                                MAXIMUM       AVERAGE  MAXIMUM  AVERAGE  MAXIMUM
 CP2K                                 1  1.0    0.002    0.002 1253.682 1253.682
 atom_code                            1  2.0    0.000    0.000 1253.679 1253.679
 atom_pseudo_opt                      1  3.0    9.298    9.298 1253.679 1253.679
 calculate_atom                    5575  4.0    0.016    0.016 1238.563 1238.563
 calculate_atom_restricted         5575  5.0  430.123  430.123 1238.547 1238.547
 calculate_atom_vxc_lda          229727  6.0  760.736  760.736  808.424  808.424
 xc_functional_eval              229727  7.0    0.546    0.546   47.442   47.442
 pbe_lda_eval                    229727  8.0   46.896   46.896   46.896   46.896
 -------------------------------------------------------------------------------

 The number of warnings for this run is : 0
 
 -------------------------------------------------------------------------------
  **** **** ******  **  PROGRAM ENDED AT                 2018-06-24 19:48:05.715
 ***** ** ***  *** **   PROGRAM RAN ON                                    tcpc01
 **    ****   ******    PROGRAM RAN BY                                    hutter
 ***** **    ** ** **   PROGRAM PROCESS ID                                  1737
  **** **  *******  **  PROGRAM STOPPED IN /data/hutter/pseudo/UZH2018/PBE/Co/q1
                                           7
