
  **** **** ******  **  PROGRAM STARTED AT               2018-06-24 12:44:26.749
 ***** ** ***  *** **   PROGRAM STARTED ON                                tcpc01
 **    ****   ******    PROGRAM STARTED BY                                hutter
 ***** **    ** ** **   PROGRAM PROCESS ID                                 30432
  **** **  *******  **  PROGRAM STARTED IN /data/hutter/pseudo/UZH2018/PBE/Ge/q2
                                           2

 CP2K| version string:                    CP2K version 7.0 (Development Version)
 CP2K| source code revision number:                                    svn:18485
 CP2K| cp2kflags: libint fftw3 libxc libderiv_max_am1=5 libint_max_am=6 spglib  
 CP2K| is freely available from                            https://www.cp2k.org/
 CP2K| Program compiled at                         Wed Jun 20 10:41:43 CEST 2018
 CP2K| Program compiled on                                                tcpc01
 CP2K| Program compiled for                                                local
 CP2K| Data directory path                        /data/hutter/CURRENT/cp2k/data
 CP2K| Input file name                                                    Ge.inp

 GLOBAL| Method name                                                        ATOM
 GLOBAL| Project name                                                    PROJECT
 GLOBAL| Preferred FFT library                                             FFTW3
 GLOBAL| Preferred diagonalization lib.                                       SL
 GLOBAL| Run type                                                   ENERGY_FORCE
 GLOBAL| All-to-all communication in single precision                          F
 GLOBAL| FFTs using library dependent lengths                                  F
 GLOBAL| Global print level                                               MEDIUM
 GLOBAL| Total number of message passing processes                             1
 GLOBAL| Number of threads for this process                                    1
 GLOBAL| This output is from process                                           0
 GLOBAL| CPU model name :  Intel(R) Xeon(R) CPU           X5570  @ 2.93GHz

 MEMORY| system memory details [Kb]
 MEMORY|                        rank 0           min           max       average
 MEMORY| MemTotal             37009584      37009584      37009584      37009584
 MEMORY| MemFree              32260944      32260944      32260944      32260944
 MEMORY| Buffers                283560        283560        283560        283560
 MEMORY| Cached                2034020       2034020       2034020       2034020
 MEMORY| Slab                   271192        271192        271192        271192
 MEMORY| SReclaimable           203320        203320        203320        203320
 MEMORY| MemLikelyFree        34781844      34781844      34781844      34781844


 *** Fundamental physical constants (SI units) ***

 *** Literature: B. J. Mohr and B. N. Taylor,
 ***             CODATA recommended values of the fundamental physical
 ***             constants: 2006, Web Version 5.1
 ***             http://physics.nist.gov/constants

 Speed of light in vacuum [m/s]                             2.99792458000000E+08
 Magnetic constant or permeability of vacuum [N/A**2]       1.25663706143592E-06
 Electric constant or permittivity of vacuum [F/m]          8.85418781762039E-12
 Planck constant (h) [J*s]                                  6.62606896000000E-34
 Planck constant (h-bar) [J*s]                              1.05457162825177E-34
 Elementary charge [C]                                      1.60217648700000E-19
 Electron mass [kg]                                         9.10938215000000E-31
 Electron g factor [ ]                                     -2.00231930436220E+00
 Proton mass [kg]                                           1.67262163700000E-27
 Fine-structure constant                                    7.29735253760000E-03
 Rydberg constant [1/m]                                     1.09737315685270E+07
 Avogadro constant [1/mol]                                  6.02214179000000E+23
 Boltzmann constant [J/K]                                   1.38065040000000E-23
 Atomic mass unit [kg]                                      1.66053878200000E-27
 Bohr radius [m]                                            5.29177208590000E-11

 *** Conversion factors ***

 [u] -> [a.u.]                                              1.82288848426455E+03
 [Angstrom] -> [Bohr] = [a.u.]                              1.88972613288564E+00
 [a.u.] = [Bohr] -> [Angstrom]                              5.29177208590000E-01
 [a.u.] -> [s]                                              2.41888432650478E-17
 [a.u.] -> [fs]                                             2.41888432650478E-02
 [a.u.] -> [J]                                              4.35974393937059E-18
 [a.u.] -> [N]                                              8.23872205491840E-08
 [a.u.] -> [K]                                              3.15774647902944E+05
 [a.u.] -> [kJ/mol]                                         2.62549961709828E+03
 [a.u.] -> [kcal/mol]                                       6.27509468713739E+02
 [a.u.] -> [Pa]                                             2.94210107994716E+13
 [a.u.] -> [bar]                                            2.94210107994716E+08
 [a.u.] -> [atm]                                            2.90362800883016E+08
 [a.u.] -> [eV]                                             2.72113838565563E+01
 [a.u.] -> [Hz]                                             6.57968392072181E+15
 [a.u.] -> [1/cm] (wave numbers)                            2.19474631370540E+05
 [a.u./Bohr**2] -> [1/cm]                                   5.14048714338585E+03
 
 DBCSR| Multiplication driver                                               BLAS
 DBCSR| Multrec recursion limit                                              512
 DBCSR| Multiplication stack size                                           1000
 DBCSR| Maximum elements for images                                    UNLIMITED
 DBCSR| Multiplicative factor virtual images                                   1
 DBCSR| Multiplication size stacks                                             3



                           ****  ******  ****   ****   
                          **  ** ****** **  ** ******  
                          ******   **   **  ** **  **  
                          **  **   **    ****  **  **  
                                                       
                             University of Zurich      
                                 2009 - 2015           
                                                       
                                 Version 0.0           
                                                                   


 Atomic Energy Calculation             Germanium [Ge]        Atomic number:   32


 *******************************************************************************
 ************************** Calculate Reference States *************************
 *******************************************************************************

 METHOD    | Restricted Kohn-Sham Calculation
 METHOD    | Relativistic Calculation using Douglas-Kroll 3rd order
 FUNCTIONAL| ROUTINE=NEW
 FUNCTIONAL| PBE:
 FUNCTIONAL| J.P.Perdew, K.Burke, M.Ernzerhof, Phys. Rev. Letter, vol. 77, n 18,
 FUNCTIONAL|  pp. 3865-3868, (1996){spin unpolarized}                           

 Electronic structure
    Total number of core electrons                                          0.00
    Total number of valence electrons                                      32.00
    Total number of electrons                                              32.00
    Multiplicity                                                   not specified
    S      2.00  2.00  2.00  2.00
    P      6.00  6.00  2.00
    D     10.00


 *******************************************************************************
                  Iteration          Convergence                     Energy [au]
 *******************************************************************************
                          1         31.2971                   -1987.237267675784
                          2         9.70583                   -1886.072086330298
                          3         17.6149                   -2046.909208036066
                          4         10.0211                   -2077.977522321626
                          5         4.75377                   -2093.251371736558
                          6        0.146715                   -2098.458959224194
                          7        0.525405E-01               -2098.461861552147
                          8        0.102563E-01               -2098.462571008114
                          9        0.211169E-03               -2098.462596389528
                         10        0.113472E-03               -2098.462596393987
                         11        0.193636E-05               -2098.462596402761
                         12        0.820418E-07               -2098.462596402758

 Energy components [Hartree]           Total Energy ::        -2098.462596402758
                                        Band Energy ::        -1219.294715347984
                                     Kinetic Energy ::         2228.375294292141
                                   Potential Energy ::        -4326.837890694899
                                      Virial (-V/T) ::            1.941700709830
                                        Core Energy ::        -2921.756796225976
                                          XC Energy ::          -79.840187667459
                                     Coulomb Energy ::          903.134387490677
                                        Confinement ::            0.000000107978

 Orbital energies  State     L     Occupation   Energy[a.u.]          Energy[eV]

                       1     0          2.000    -402.379264       -10949.296610
                       2     0          2.000     -50.363481        -1370.460021
                       3     0          2.000      -6.185816         -168.324602
                       4     0          2.000      -0.430406          -11.711955
                       5     0          0.000       0.000580            0.015772
                       6     0          0.000       0.197789            5.382109

                       1     1          6.000     -44.009807        -1197.567750
                       2     1          6.000      -4.244921         -115.510188
                       3     1          2.000      -0.142690           -3.882785
                       4     1          0.000       0.057299            1.559189
                       5     1          0.000       0.283129            7.704337

                       1     2         10.000      -1.076303          -29.287696
                       2     2          0.000       0.061331            1.668901
                       3     2          0.000       0.205504            5.592043

                       1     3          0.000       0.139050            3.783756


 Total Electron Density at R=0:                                     53934.545237

 *******************************************************************************
 ********************* Optimize Pseudopotential Parameters *********************
 *******************************************************************************

 POWELL| Start optimization procedure

 POWELL| Total number of parameters in optimization                           13

 POWELL| Initial errors of target values

 Reference configuration          1               Method number                1
    L    N    Occupation      Eigenvalue [eV]           dE [eV]          dCharge 
    0    1          2.00      -168.0428989919 SC   0.281703[ 1]    -0.000001[ X]
    0    2          2.00       -11.7047904393 VA   0.007165[ 0]     0.000514[ 0]
    0    3          0.00         0.0081813350 U1  -0.007591[ 0]     0.000514[ X]
    0    4          0.00         5.3636993402 U2  -0.018410[ X]     0.001564[ 0]
    1    1          6.00      -115.0546124803 SC   0.455576[ 2]    -0.000003[ X]
    1    2          2.00        -3.8762148555 VA   0.006570[ 0]    -0.001898[ 0]
    1    3          0.00         1.5611334293 U1   0.001944[ X]    -0.000072[ X]
    1    4          0.00         7.7134494131 U2   0.009113[ X]    -0.000083[ 0]
    2    1         10.00       -29.4845695481 VA  -0.196873[97]    -0.000435[ 0]
    2    2          0.00         1.6775707894 U1   0.008670[ 0]    -0.004590[ 0]
    2    3          0.00         5.6474520671 U2   0.055410[ 0]    -0.006358[ 0]
    3    1          0.00         3.7810816071 U1  -0.002675[ X]    -0.000001[ X]

 Number of target values reached:                                       9 of  21

 POWELL| Start optimization   1 of total 100               rhobeg =   0.08000000
 POWELL| Inital value of function                               41575.5948462548
 POWELL| Reached   6% of maximal function calls                 41575.5948462548
 POWELL| Reached   8% of maximal function calls                 15357.4368140140
 POWELL| Reached  10% of maximal function calls                 15357.4368140140
 POWELL| Reached  12% of maximal function calls                 15357.4368140140
 POWELL| Reached  14% of maximal function calls                 15357.4368140140
 POWELL| Reached  16% of maximal function calls                 15357.4368140140
 POWELL| Reached  18% of maximal function calls                 15357.4368140140
 POWELL| Reached  20% of maximal function calls                 15357.4368140140
 POWELL| Reached  22% of maximal function calls                 15357.4368140140
 POWELL| Reached  24% of maximal function calls                 15357.4368140140
 POWELL| Reached  26% of maximal function calls                 15357.4368140140
 POWELL| Reached  28% of maximal function calls                 15357.4368140140
 POWELL| Reached  30% of maximal function calls                 15357.4368140140
 POWELL| Reached  32% of maximal function calls                 15357.4368140140
 POWELL| Reached  34% of maximal function calls                 15357.4368140140
 POWELL| Reached  36% of maximal function calls                 15357.4368140140
 POWELL| Reached  38% of maximal function calls                 15357.4368140140
 POWELL| Reached  40% of maximal function calls                 15357.4368140140
 POWELL| Reached  42% of maximal function calls                 15357.4368140140
 POWELL| Reached  44% of maximal function calls                 15357.4368140140
 POWELL| Reached  46% of maximal function calls                 15357.4368140140
 POWELL| Reached  48% of maximal function calls                 15357.4368140140
 POWELL| Reached  50% of maximal function calls                  5856.2402553380
 POWELL| Reached  52% of maximal function calls                  5856.2402553380
 POWELL| Reached  54% of maximal function calls                  5856.2402553380
 POWELL| Reached  56% of maximal function calls                  5856.2402553380
 POWELL| Reached  57% of maximal function calls                  5856.2402553380
 POWELL| Reached  60% of maximal function calls                  5856.2402553380
 POWELL| Reached  62% of maximal function calls                  5856.2402553380
 POWELL| Reached  64% of maximal function calls                  5856.2402553380
 POWELL| Reached  66% of maximal function calls                  5856.2402553380
 POWELL| Reached  68% of maximal function calls                  5856.2402553380
 POWELL| Reached  70% of maximal function calls                  5856.2402553380
 POWELL| Reached  72% of maximal function calls                  5856.2402553380
 POWELL| Reached  74% of maximal function calls                  5856.2402553380
 POWELL| Reached  76% of maximal function calls                  5856.2402553380
 POWELL| Reached  78% of maximal function calls                  5856.2402553380
 POWELL| Reached  80% of maximal function calls                  5856.2402553380
 POWELL| Reached  82% of maximal function calls                  5856.2402553380
 POWELL| Reached  84% of maximal function calls                  5856.2402553380
 POWELL| Reached  86% of maximal function calls                  5856.2402553380
 POWELL| Reached  88% of maximal function calls                  5856.2402553380
 POWELL| Reached  90% of maximal function calls                  5856.2402553380
 POWELL| Reached  92% of maximal function calls                  5856.2402553380
 POWELL| Reached  94% of maximal function calls                  5856.2402553380
 POWELL| Reached  96% of maximal function calls                  5856.2402553380
 POWELL| Reached  98% of maximal function calls                  5856.2402553380
 POWELL| Reached 100% of maximal function calls                  5856.2402553380
 POWELL| Reached 100% of maximal function calls                  5856.2402553380
 POWELL| Exceeding maximum number of steps
 POWELL| Reached 100% of maximal function calls                  5856.2402553380
 POWELL| RMS average of variables                                   0.0221880078
 POWELL| Start optimization   2 of total 100               rhobeg =   0.07600000
 POWELL| Inital value of function                                5856.2402553380
 POWELL| Reached   6% of maximal function calls                  5856.2402553380
 POWELL| Reached   8% of maximal function calls                  4073.2260288473
 POWELL| Reached  10% of maximal function calls                  4073.2260288473
 POWELL| Reached  12% of maximal function calls                  4073.2260288473
 POWELL| Reached  14% of maximal function calls                  4073.2260288473
 POWELL| Reached  16% of maximal function calls                  4073.2260288473
 POWELL| Reached  18% of maximal function calls                  4073.2260288473
 POWELL| Reached  20% of maximal function calls                  4073.2260288473
 POWELL| Reached  22% of maximal function calls                  4073.2260288473
 POWELL| Reached  24% of maximal function calls                  4073.2260288473
 POWELL| Reached  26% of maximal function calls                  4073.2260288473
 POWELL| Reached  28% of maximal function calls                  4073.2260288473
 POWELL| Reached  30% of maximal function calls                  4073.2260288473
 POWELL| Reached  32% of maximal function calls                  4073.2260288473
 POWELL| Reached  34% of maximal function calls                  4073.2260288473
 POWELL| Reached  36% of maximal function calls                  4073.2260288473
 POWELL| Reached  38% of maximal function calls                  4073.2260288473
 POWELL| Reached  40% of maximal function calls                  4073.2260288473
 POWELL| Reached  42% of maximal function calls                  4073.2260288473
 POWELL| Reached  44% of maximal function calls                   488.4519044840
 POWELL| Reached  46% of maximal function calls                   488.4519044840
 POWELL| Reached  48% of maximal function calls                   488.4519044840
 POWELL| Reached  50% of maximal function calls                   488.4519044840
 POWELL| Reached  52% of maximal function calls                   488.4519044840
 POWELL| Reached  54% of maximal function calls                   488.4519044840
 POWELL| Reached  56% of maximal function calls                   488.4519044840
 POWELL| Reached  57% of maximal function calls                   488.4519044840
 POWELL| Reached  60% of maximal function calls                   488.4519044840
 POWELL| Reached  62% of maximal function calls                   488.4519044840
 POWELL| Reached  64% of maximal function calls                   488.4519044840
 POWELL| Reached  66% of maximal function calls                   488.4519044840
 POWELL| Reached  68% of maximal function calls                   488.4519044840
 POWELL| Reached  70% of maximal function calls                   488.4519044840
 POWELL| Reached  72% of maximal function calls                   488.4519044840
 POWELL| Reached  74% of maximal function calls                   488.4519044840
 POWELL| Reached  76% of maximal function calls                   488.4519044840
 POWELL| Reached  78% of maximal function calls                   488.4519044840
 POWELL| Reached  80% of maximal function calls                   488.4519044840
 POWELL| Reached  82% of maximal function calls                   488.4519044840
 POWELL| Reached  84% of maximal function calls                   488.4519044840
 POWELL| Reached  86% of maximal function calls                   488.4519044840
 POWELL| Reached  88% of maximal function calls                   488.4519044840
 POWELL| Reached  90% of maximal function calls                   488.4519044840
 POWELL| Reached  92% of maximal function calls                   488.4519044840
 POWELL| Reached  94% of maximal function calls                   488.4519044840
 POWELL| Reached  96% of maximal function calls                   488.4519044840
 POWELL| Reached  98% of maximal function calls                   488.4519044840
 POWELL| Reached 100% of maximal function calls                   488.4519044840
 POWELL| Reached 100% of maximal function calls                   488.4519044840
 POWELL| Exceeding maximum number of steps
 POWELL| Reached 100% of maximal function calls                   488.4519044840
 POWELL| RMS average of variables                                   0.0210786075
 POWELL| Start optimization   3 of total 100               rhobeg =   0.07220000
 POWELL| Inital value of function                                 488.4519044840
 POWELL| Reached   6% of maximal function calls                   488.4519044840
 POWELL| Reached   8% of maximal function calls                   488.4519044840
 POWELL| Reached  10% of maximal function calls                   488.4519044840
 POWELL| Reached  12% of maximal function calls                   488.4519044840
 POWELL| Reached  14% of maximal function calls                   488.4519044840
 POWELL| Reached  16% of maximal function calls                   488.4519044840
 POWELL| Reached  18% of maximal function calls                   488.4519044840
 POWELL| Reached  20% of maximal function calls                   488.4519044840
 POWELL| Reached  22% of maximal function calls                   488.4519044840
 POWELL| Reached  24% of maximal function calls                   488.4519044840
 POWELL| Reached  26% of maximal function calls                   488.4519044840
 POWELL| Reached  28% of maximal function calls                   488.4519044840
 POWELL| Reached  30% of maximal function calls                   488.4519044840
 POWELL| Reached  32% of maximal function calls                   488.4519044840
 POWELL| Reached  34% of maximal function calls                   488.4519044840
 POWELL| Reached  36% of maximal function calls                   488.4519044840
 POWELL| Reached  38% of maximal function calls                   488.4519044840
 POWELL| Reached  40% of maximal function calls                   488.4519044840
 POWELL| Reached  42% of maximal function calls                   488.4519044840
 POWELL| Reached  44% of maximal function calls                   488.4519044840
 POWELL| Reached  46% of maximal function calls                   488.4519044840
 POWELL| Reached  48% of maximal function calls                   488.4519044840
 POWELL| Reached  50% of maximal function calls                   488.4519044840
 POWELL| Reached  52% of maximal function calls                   488.4519044840
 POWELL| Reached  54% of maximal function calls                   488.4519044840
 POWELL| Reached  56% of maximal function calls                   488.4519044840
 POWELL| Reached  57% of maximal function calls                   488.4519044840
 POWELL| Reached  60% of maximal function calls                   488.4519044840
 POWELL| Reached  62% of maximal function calls                   488.4519044840
 POWELL| Reached  64% of maximal function calls                   457.0039659528
 POWELL| Reached  66% of maximal function calls                   457.0039659528
 POWELL| Reached  68% of maximal function calls                   457.0039659528
 POWELL| Reached  70% of maximal function calls                   457.0039659528
 POWELL| Reached  72% of maximal function calls                   439.4135451056
 POWELL| Reached  74% of maximal function calls                   439.4135451056
 POWELL| Reached  76% of maximal function calls                   439.4135451056
 POWELL| Reached  78% of maximal function calls                   439.4135451056
 POWELL| Reached  80% of maximal function calls                   439.4135451056
 POWELL| Reached  82% of maximal function calls                   439.4135451056
 POWELL| Reached  84% of maximal function calls                   353.1369785712
 POWELL| Reached  86% of maximal function calls                   353.1369785712
 POWELL| Reached  88% of maximal function calls                   353.1369785712
 POWELL| Reached  90% of maximal function calls                   353.1369785712
 POWELL| Reached  92% of maximal function calls                   350.4563459748
 POWELL| Reached  94% of maximal function calls                   350.4563459748
 POWELL| Reached  96% of maximal function calls                   350.4563459748
 POWELL| Reached  98% of maximal function calls                   350.4563459748
 POWELL| Reached 100% of maximal function calls                   350.4563459748
 POWELL| Reached 100% of maximal function calls                   350.4563459748
 POWELL| Exceeding maximum number of steps
 POWELL| Reached 100% of maximal function calls                   350.4563459748
 POWELL| RMS average of variables                                   0.0020318500
 POWELL| Start optimization   4 of total 100               rhobeg =   0.06859000
 POWELL| Inital value of function                                 350.4563459748
 POWELL| Reached   6% of maximal function calls                   350.4563459748
 POWELL| Reached   8% of maximal function calls                   350.4563459748
 POWELL| Reached  10% of maximal function calls                   350.4563459748
 POWELL| Reached  12% of maximal function calls                   350.4563459748
 POWELL| Reached  14% of maximal function calls                   350.4563459748
 POWELL| Reached  16% of maximal function calls                   350.4563459748
 POWELL| Reached  18% of maximal function calls                   350.4563459748
 POWELL| Reached  20% of maximal function calls                   350.4563459748
 POWELL| Reached  22% of maximal function calls                   350.4563459748
 POWELL| Reached  24% of maximal function calls                   350.4563459748
 POWELL| Reached  26% of maximal function calls                   350.4563459748
 POWELL| Reached  28% of maximal function calls                   350.4563459748
 POWELL| Reached  30% of maximal function calls                   350.4563459748
 POWELL| Reached  32% of maximal function calls                   350.4563459748
 POWELL| Reached  34% of maximal function calls                   350.4563459748
 POWELL| Reached  36% of maximal function calls                   350.4563459748
 POWELL| Reached  38% of maximal function calls                   350.4563459748
 POWELL| Reached  40% of maximal function calls                   350.4563459748
 POWELL| Reached  42% of maximal function calls                   350.4563459748
 POWELL| Reached  44% of maximal function calls                   350.4563459748
 POWELL| Reached  46% of maximal function calls                   350.4563459748
 POWELL| Reached  48% of maximal function calls                   350.4563459748
 POWELL| Reached  50% of maximal function calls                   350.4563459748
 POWELL| Reached  52% of maximal function calls                   350.4563459748
 POWELL| Reached  54% of maximal function calls                   350.4563459748
 POWELL| Reached  56% of maximal function calls                   350.4563459748
 POWELL| Reached  57% of maximal function calls                   350.4563459748
 POWELL| Reached  60% of maximal function calls                   350.4563459748
 POWELL| Reached  62% of maximal function calls                   350.4563459748
 POWELL| Reached  64% of maximal function calls                   340.1267990026
 POWELL| Reached  66% of maximal function calls                   340.1267990026
 POWELL| Reached  68% of maximal function calls                   340.1267990026
 POWELL| Reached  70% of maximal function calls                   340.1267990026
 POWELL| Reached  72% of maximal function calls                   340.1267990026
 POWELL| Reached  74% of maximal function calls                   340.1267990026
 POWELL| Reached  76% of maximal function calls                   340.1267990026
 POWELL| Reached  78% of maximal function calls                   340.1267990026
 POWELL| Reached  80% of maximal function calls                   339.3050194585
 POWELL| Reached  82% of maximal function calls                   339.3050194585
 POWELL| Reached  84% of maximal function calls                   339.3050194585
 POWELL| Reached  86% of maximal function calls                   339.3050194585
 POWELL| Reached  88% of maximal function calls                   339.3050194585
 POWELL| Reached  90% of maximal function calls                   339.3050194585
 POWELL| Reached  92% of maximal function calls                   339.3050194585
 POWELL| Reached  94% of maximal function calls                   339.3050194585
 POWELL| Reached  96% of maximal function calls                   339.3050194585
 POWELL| Reached  98% of maximal function calls                   339.3050194585
 POWELL| Reached 100% of maximal function calls                   331.1848825812
 POWELL| Reached 100% of maximal function calls                   331.1848825812
 POWELL| Exceeding maximum number of steps
 POWELL| Reached 100% of maximal function calls                   331.1848825812
 POWELL| RMS average of variables                                   0.0019184523
 POWELL| Start optimization   5 of total 100               rhobeg =   0.06516050
 POWELL| Inital value of function                                 331.1848825812
 POWELL| Reached   6% of maximal function calls                   331.1848825812
 POWELL| Reached   8% of maximal function calls                   331.1848825812
 POWELL| Reached  10% of maximal function calls                   331.1848825812
 POWELL| Reached  12% of maximal function calls                   331.1848825812
 POWELL| Reached  14% of maximal function calls                   331.1848825812
 POWELL| Reached  16% of maximal function calls                   331.1848825812
 POWELL| Reached  18% of maximal function calls                   331.1848825812
 POWELL| Reached  20% of maximal function calls                   331.1848825812
 POWELL| Reached  22% of maximal function calls                   331.1848825812
 POWELL| Reached  24% of maximal function calls                   331.1848825812
 POWELL| Reached  26% of maximal function calls                   331.1848825812
 POWELL| Reached  28% of maximal function calls                   331.1848825812
 POWELL| Reached  30% of maximal function calls                   331.1848825812
 POWELL| Reached  32% of maximal function calls                   331.1848825812
 POWELL| Reached  34% of maximal function calls                   331.1848825812
 POWELL| Reached  36% of maximal function calls                   331.1848825812
 POWELL| Reached  38% of maximal function calls                   331.1848825812
 POWELL| Reached  40% of maximal function calls                   331.1848825812
 POWELL| Reached  42% of maximal function calls                   331.1848825812
 POWELL| Reached  44% of maximal function calls                   331.1848825812
 POWELL| Reached  46% of maximal function calls                   331.1848825812
 POWELL| Reached  48% of maximal function calls                   331.1848825812
 POWELL| Reached  50% of maximal function calls                   331.1848825812
 POWELL| Reached  52% of maximal function calls                   331.1848825812
 POWELL| Reached  54% of maximal function calls                   331.1848825812
 POWELL| Reached  56% of maximal function calls                   331.1848825812
 POWELL| Reached  57% of maximal function calls                   331.1848825812
 POWELL| Reached  60% of maximal function calls                   331.1848825812
 POWELL| Reached  62% of maximal function calls                   331.1848825812
 POWELL| Reached  64% of maximal function calls                   331.1848825812
 POWELL| Reached  66% of maximal function calls                   331.1848825812
 POWELL| Reached  68% of maximal function calls                   331.1848825812
 POWELL| Reached  70% of maximal function calls                   331.1848825812
 POWELL| Reached  72% of maximal function calls                   331.1848825812
 POWELL| Reached  74% of maximal function calls                   331.1848825812
 POWELL| Reached  76% of maximal function calls                   331.1848825812
 POWELL| Reached  78% of maximal function calls                   331.1848825812
 POWELL| Reached  80% of maximal function calls                   331.1848825812
 POWELL| Reached  82% of maximal function calls                   331.1848825812
 POWELL| Reached  84% of maximal function calls                   331.1848825812
 POWELL| Reached  86% of maximal function calls                   331.1848825812
 POWELL| Reached  88% of maximal function calls                   331.1848825812
 POWELL| Reached  90% of maximal function calls                   331.1848825812
 POWELL| Reached  92% of maximal function calls                   331.1848825812
 POWELL| Reached  94% of maximal function calls                   331.1848825812
 POWELL| Reached  96% of maximal function calls                   331.1848825812
 POWELL| Reached  98% of maximal function calls                   331.1848825812
 POWELL| Reached 100% of maximal function calls                   331.1848825812
 POWELL| Reached 100% of maximal function calls                   331.1848825812
 POWELL| Exceeding maximum number of steps
 POWELL| Reached 100% of maximal function calls                   331.1848825812
 POWELL| RMS average of variables                                   0.0000000000
 POWELL| Number of function evaluations                                       50
 POWELL| Final value of function                                  331.1848825812

 POWELL| Final errors of target values

 Reference configuration          1               Method number                1
    L    N    Occupation      Eigenvalue [eV]           dE [eV]          dCharge 
    0    1          2.00      -168.2793489140 SC   0.045253[ 2]    -0.000001[ X]
    0    2          2.00       -11.7119459408 VA   0.000009[ X]     0.001608[ 0]
    0    3          0.00         0.0101460688 U1  -0.005626[ 0]     0.000413[ X]
    0    4          0.00         5.3636450918 U2  -0.018464[ X]     0.001728[ 0]
    1    1          6.00      -115.7897433505 SC  -0.279555[96]     0.000001[ X]
    1    2          2.00        -3.8848249100 VA  -0.002040[ 1]     0.000166[ X]
    1    3          0.00         1.5595510126 U1   0.000362[ X]    -0.000135[ X]
    1    4          0.00         7.7063382418 U2   0.002002[ X]    -0.000260[ 0]
    2    1         10.00       -29.2863580727 VA   0.001338[ 0]    -0.000518[ 0]
    2    2          0.00         1.6838989766 U1   0.014998[ 0]    -0.005447[ 0]
    2    3          0.00         5.6595014495 U2   0.067459[ 0]    -0.006692[ 0]
    3    1          0.00         3.7846104834 U1   0.000854[ X]    -0.000003[ X]
    s-states N=    1                   Wavefunction at r=0:         0.482970[ 0]
    s-states N=    2                   Wavefunction at r=0:         0.828539[ 0]
    s-states N=    3                   Wavefunction at r=0:        -0.308977[ 0]
    s-states N=    4                   Wavefunction at r=0:         0.452232[ 0]

 Number of target values reached:                                      11 of  21



                             NORMAL TERMINATION OF     
                                                       
                           ****  ******  ****   ****   
                          **  ** ****** **  ** ******  
                          ******   **   **  ** **  **  
                          **  **   **    ****  **  **  


 -------------------------------------------------------------------------------
 -                                                                             -
 -                                DBCSR STATISTICS                             -
 -                                                                             -
 -------------------------------------------------------------------------------
 COUNTER                                    TOTAL       BLAS       SMM       ACC
 flops inhomo. stacks                           0       0.0%      0.0%      0.0%
 flops total                         0.000000E+00       0.0%      0.0%      0.0%
 flops max/rank                      0.000000E+00       0.0%      0.0%      0.0%
 matmuls inhomo. stacks                         0       0.0%      0.0%      0.0%
 matmuls total                                  0       0.0%      0.0%      0.0%
 number of processed stacks                     0       0.0%      0.0%      0.0%
 average stack size                                     0.0       0.0       0.0
 marketing flops                     0.000000E+00
 -------------------------------------------------------------------------------

 MEMORY| Estimated peak process memory [MiB]                                  47

 -------------------------------------------------------------------------------
 -                                                                             -
 -                           R E F E R E N C E S                               -
 -                                                                             -
 -------------------------------------------------------------------------------
 
 CP2K version 7.0 (Development Version), the CP2K developers group (2018).
 CP2K is freely available from https://www.cp2k.org/ .

 Schuett, Ole; Messmer, Peter; Hutter, Juerg; VandeVondele, Joost. 
 Electronic Structure Calculations on Graphics Processing Units, John Wiley & Sons, Ltd, 173-190 (2016). 
 GPU-Accelerated Sparse Matrix-Matrix Multiplication for Linear Scaling Density Functional Theory.
 http://dx.doi.org/10.1002/9781118670712.ch8


 Borstnik, U; VandeVondele, J; Weber, V; Hutter, J. 
 PARALLEL COMPUTING, 40 (5-6), 47-58 (2014). 
 Sparse matrix multiplication: The distributed block-compressed sparse
 row library.
 http://dx.doi.org/10.1016/j.parco.2014.03.012


 Hutter, J; Iannuzzi, M; Schiffmann, F; VandeVondele, J. 
 WILEY INTERDISCIPLINARY REVIEWS-COMPUTATIONAL MOLECULAR SCIENCE, 4 (1), 15-25 (2014). 
 CP2K: atomistic simulations of condensed matter systems.
 http://dx.doi.org/10.1002/wcms.1159


 Frigo, M; Johnson, SG. 
 PROCEEDINGS OF THE IEEE, 93 (2), 216-231 (2005). 
 The design and implementation of FFTW3.
 http://dx.doi.org/10.1109/JPROC.2004.840301


 Perdew, JP; Burke, K; Ernzerhof, M. 
 PHYSICAL REVIEW LETTERS, 77 (18), 3865-3868 (1996). 
 Generalized gradient approximation made simple.
 http://dx.doi.org/10.1103/PhysRevLett.77.3865


 -------------------------------------------------------------------------------
 -                                                                             -
 -                                T I M I N G                                  -
 -                                                                             -
 -------------------------------------------------------------------------------
 SUBROUTINE                       CALLS  ASD         SELF TIME        TOTAL TIME
                                MAXIMUM       AVERAGE  MAXIMUM  AVERAGE  MAXIMUM
 CP2K                                 1  1.0    0.003    0.003  267.886  267.886
 atom_code                            1  2.0    0.000    0.000  267.883  267.883
 atom_pseudo_opt                      1  3.0    0.547    0.547  267.883  267.883
 calculate_atom                     375  4.0    0.001    0.001  266.904  266.904
 calculate_atom_restricted          375  5.0   93.100   93.100  266.903  266.903
 calculate_atom_vxc_lda           48022  6.0  163.495  163.495  173.803  173.803
 xc_functional_eval               48022  7.0    0.124    0.124   10.249   10.249
 pbe_lda_eval                     48022  8.0   10.125   10.125   10.125   10.125
 -------------------------------------------------------------------------------

 The number of warnings for this run is : 0
 
 -------------------------------------------------------------------------------
  **** **** ******  **  PROGRAM ENDED AT                 2018-06-24 12:48:54.676
 ***** ** ***  *** **   PROGRAM RAN ON                                    tcpc01
 **    ****   ******    PROGRAM RAN BY                                    hutter
 ***** **    ** ** **   PROGRAM PROCESS ID                                 30432
  **** **  *******  **  PROGRAM STOPPED IN /data/hutter/pseudo/UZH2018/PBE/Ge/q2
                                           2

  **** **** ******  **  PROGRAM STARTED AT               2018-06-24 12:49:46.178
 ***** ** ***  *** **   PROGRAM STARTED ON                                tcpc01
 **    ****   ******    PROGRAM STARTED BY                                hutter
 ***** **    ** ** **   PROGRAM PROCESS ID                                 30570
  **** **  *******  **  PROGRAM STARTED IN /data/hutter/pseudo/UZH2018/PBE/Ge/q2
                                           2

 CP2K| version string:                    CP2K version 7.0 (Development Version)
 CP2K| source code revision number:                                    svn:18485
 CP2K| cp2kflags: libint fftw3 libxc libderiv_max_am1=5 libint_max_am=6 spglib  
 CP2K| is freely available from                            https://www.cp2k.org/
 CP2K| Program compiled at                         Wed Jun 20 10:41:43 CEST 2018
 CP2K| Program compiled on                                                tcpc01
 CP2K| Program compiled for                                                local
 CP2K| Data directory path                        /data/hutter/CURRENT/cp2k/data
 CP2K| Input file name                                                    Ge.inp

 GLOBAL| Method name                                                        ATOM
 GLOBAL| Project name                                                    PROJECT
 GLOBAL| Preferred FFT library                                             FFTW3
 GLOBAL| Preferred diagonalization lib.                                       SL
 GLOBAL| Run type                                                   ENERGY_FORCE
 GLOBAL| All-to-all communication in single precision                          F
 GLOBAL| FFTs using library dependent lengths                                  F
 GLOBAL| Global print level                                               MEDIUM
 GLOBAL| Total number of message passing processes                             1
 GLOBAL| Number of threads for this process                                    1
 GLOBAL| This output is from process                                           0
 GLOBAL| CPU model name :  Intel(R) Xeon(R) CPU           X5570  @ 2.93GHz

 MEMORY| system memory details [Kb]
 MEMORY|                        rank 0           min           max       average
 MEMORY| MemTotal             37009584      37009584      37009584      37009584
 MEMORY| MemFree              32255408      32255408      32255408      32255408
 MEMORY| Buffers                283844        283844        283844        283844
 MEMORY| Cached                2034496       2034496       2034496       2034496
 MEMORY| Slab                   271508        271508        271508        271508
 MEMORY| SReclaimable           203380        203380        203380        203380
 MEMORY| MemLikelyFree        34777128      34777128      34777128      34777128


 *** Fundamental physical constants (SI units) ***

 *** Literature: B. J. Mohr and B. N. Taylor,
 ***             CODATA recommended values of the fundamental physical
 ***             constants: 2006, Web Version 5.1
 ***             http://physics.nist.gov/constants

 Speed of light in vacuum [m/s]                             2.99792458000000E+08
 Magnetic constant or permeability of vacuum [N/A**2]       1.25663706143592E-06
 Electric constant or permittivity of vacuum [F/m]          8.85418781762039E-12
 Planck constant (h) [J*s]                                  6.62606896000000E-34
 Planck constant (h-bar) [J*s]                              1.05457162825177E-34
 Elementary charge [C]                                      1.60217648700000E-19
 Electron mass [kg]                                         9.10938215000000E-31
 Electron g factor [ ]                                     -2.00231930436220E+00
 Proton mass [kg]                                           1.67262163700000E-27
 Fine-structure constant                                    7.29735253760000E-03
 Rydberg constant [1/m]                                     1.09737315685270E+07
 Avogadro constant [1/mol]                                  6.02214179000000E+23
 Boltzmann constant [J/K]                                   1.38065040000000E-23
 Atomic mass unit [kg]                                      1.66053878200000E-27
 Bohr radius [m]                                            5.29177208590000E-11

 *** Conversion factors ***

 [u] -> [a.u.]                                              1.82288848426455E+03
 [Angstrom] -> [Bohr] = [a.u.]                              1.88972613288564E+00
 [a.u.] = [Bohr] -> [Angstrom]                              5.29177208590000E-01
 [a.u.] -> [s]                                              2.41888432650478E-17
 [a.u.] -> [fs]                                             2.41888432650478E-02
 [a.u.] -> [J]                                              4.35974393937059E-18
 [a.u.] -> [N]                                              8.23872205491840E-08
 [a.u.] -> [K]                                              3.15774647902944E+05
 [a.u.] -> [kJ/mol]                                         2.62549961709828E+03
 [a.u.] -> [kcal/mol]                                       6.27509468713739E+02
 [a.u.] -> [Pa]                                             2.94210107994716E+13
 [a.u.] -> [bar]                                            2.94210107994716E+08
 [a.u.] -> [atm]                                            2.90362800883016E+08
 [a.u.] -> [eV]                                             2.72113838565563E+01
 [a.u.] -> [Hz]                                             6.57968392072181E+15
 [a.u.] -> [1/cm] (wave numbers)                            2.19474631370540E+05
 [a.u./Bohr**2] -> [1/cm]                                   5.14048714338585E+03
 
 DBCSR| Multiplication driver                                               BLAS
 DBCSR| Multrec recursion limit                                              512
 DBCSR| Multiplication stack size                                           1000
 DBCSR| Maximum elements for images                                    UNLIMITED
 DBCSR| Multiplicative factor virtual images                                   1
 DBCSR| Multiplication size stacks                                             3



                           ****  ******  ****   ****   
                          **  ** ****** **  ** ******  
                          ******   **   **  ** **  **  
                          **  **   **    ****  **  **  
                                                       
                             University of Zurich      
                                 2009 - 2015           
                                                       
                                 Version 0.0           
                                                                   


 Atomic Energy Calculation             Germanium [Ge]        Atomic number:   32


 *******************************************************************************
 ************************** Calculate Reference States *************************
 *******************************************************************************

 METHOD    | Restricted Kohn-Sham Calculation
 METHOD    | Relativistic Calculation using Douglas-Kroll 3rd order
 FUNCTIONAL| ROUTINE=NEW
 FUNCTIONAL| PBE:
 FUNCTIONAL| J.P.Perdew, K.Burke, M.Ernzerhof, Phys. Rev. Letter, vol. 77, n 18,
 FUNCTIONAL|  pp. 3865-3868, (1996){spin unpolarized}                           

 Electronic structure
    Total number of core electrons                                          0.00
    Total number of valence electrons                                      32.00
    Total number of electrons                                              32.00
    Multiplicity                                                   not specified
    S      2.00  2.00  2.00  2.00
    P      6.00  6.00  2.00
    D     10.00


 *******************************************************************************
                  Iteration          Convergence                     Energy [au]
 *******************************************************************************
                          1         31.2971                   -1987.237267675784
                          2         9.70583                   -1886.072086330298
                          3         17.6149                   -2046.909208036066
                          4         10.0211                   -2077.977522321626
                          5         4.75377                   -2093.251371736558
                          6        0.146715                   -2098.458959224194
                          7        0.525405E-01               -2098.461861552147
                          8        0.102563E-01               -2098.462571008114
                          9        0.211169E-03               -2098.462596389528
                         10        0.113472E-03               -2098.462596393987
                         11        0.193636E-05               -2098.462596402761
                         12        0.820418E-07               -2098.462596402758

 Energy components [Hartree]           Total Energy ::        -2098.462596402758
                                        Band Energy ::        -1219.294715347984
                                     Kinetic Energy ::         2228.375294292141
                                   Potential Energy ::        -4326.837890694899
                                      Virial (-V/T) ::            1.941700709830
                                        Core Energy ::        -2921.756796225976
                                          XC Energy ::          -79.840187667459
                                     Coulomb Energy ::          903.134387490677
                                        Confinement ::            0.000000107978

 Orbital energies  State     L     Occupation   Energy[a.u.]          Energy[eV]

                       1     0          2.000    -402.379264       -10949.296610
                       2     0          2.000     -50.363481        -1370.460021
                       3     0          2.000      -6.185816         -168.324602
                       4     0          2.000      -0.430406          -11.711955
                       5     0          0.000       0.000580            0.015772
                       6     0          0.000       0.197789            5.382109

                       1     1          6.000     -44.009807        -1197.567750
                       2     1          6.000      -4.244921         -115.510188
                       3     1          2.000      -0.142690           -3.882785
                       4     1          0.000       0.057299            1.559189
                       5     1          0.000       0.283129            7.704337

                       1     2         10.000      -1.076303          -29.287696
                       2     2          0.000       0.061331            1.668901
                       3     2          0.000       0.205504            5.592043

                       1     3          0.000       0.139050            3.783756


 Total Electron Density at R=0:                                     53934.545237

 *******************************************************************************
 ********************* Optimize Pseudopotential Parameters *********************
 *******************************************************************************

 POWELL| Start optimization procedure

 POWELL| Total number of parameters in optimization                           13

 POWELL| Initial errors of target values

 Reference configuration          1               Method number                1
    L    N    Occupation      Eigenvalue [eV]           dE [eV]          dCharge 
    0    1          2.00      -168.2793511703 SC   0.045251[ 2]    -0.000001[ X]
    0    2          2.00       -11.7119481305 VA   0.000007[ X]     0.001608[ 0]
    0    3          0.00         0.0101447066 U1  -0.005627[ 0]     0.000413[ X]
    0    4          0.00         5.3636435858 U2  -0.018465[ X]     0.001728[ 0]
    1    1          6.00      -115.7897456821 SC  -0.279558[96]     0.000001[ X]
    1    2          2.00        -3.8848266854 VA  -0.002041[ 1]     0.000166[ X]
    1    3          0.00         1.5595495743 U1   0.000360[ X]    -0.000136[ X]
    1    4          0.00         7.7063366979 U2   0.002000[ X]    -0.000260[ 0]
    2    1         10.00       -29.2863600892 VA   0.001336[ 0]    -0.000518[ 0]
    2    2          0.00         1.6838976574 U1   0.014997[ 0]    -0.005447[ 0]
    2    3          0.00         5.6595000344 U2   0.067457[ 0]    -0.006692[ 0]
    3    1          0.00         3.7846091545 U1   0.000853[ X]    -0.000003[ X]

 Number of target values reached:                                      11 of  21

 POWELL| Start optimization   1 of total 100               rhobeg =   0.00080000
 POWELL| Inital value of function                                 331.1915018654
 POWELL| Reached   6% of maximal function calls                   331.1915018654
 POWELL| Reached   8% of maximal function calls                   330.9967732121
 POWELL| Reached  10% of maximal function calls                   330.9967732121
 POWELL| Reached  12% of maximal function calls                   330.9967732121
 POWELL| Reached  14% of maximal function calls                   330.9967732121
 POWELL| Reached  16% of maximal function calls                   330.9967732121
 POWELL| Reached  18% of maximal function calls                   330.9967732121
 POWELL| Reached  20% of maximal function calls                   330.9967732121
 POWELL| Reached  22% of maximal function calls                   330.9967732121
 POWELL| Reached  24% of maximal function calls                   309.7131092509
 POWELL| Reached  26% of maximal function calls                   309.7131092509
 POWELL| Reached  28% of maximal function calls                   297.9917899111
 POWELL| Reached  30% of maximal function calls                   297.9917899111
 POWELL| Reached  32% of maximal function calls                   297.9917899111
 POWELL| Reached  34% of maximal function calls                   297.9917899111
 POWELL| Reached  36% of maximal function calls                   297.9917899111
 POWELL| Reached  38% of maximal function calls                   297.9917899111
 POWELL| Reached  40% of maximal function calls                   250.2719278164
 POWELL| Reached  42% of maximal function calls                   250.2719278164
 POWELL| Reached  44% of maximal function calls                   250.2719278164
 POWELL| Reached  46% of maximal function calls                   250.2719278164
 POWELL| Reached  48% of maximal function calls                   250.2719278164
 POWELL| Reached  50% of maximal function calls                   250.2719278164
 POWELL| Reached  52% of maximal function calls                   250.2719278164
 POWELL| Reached  54% of maximal function calls                   250.2719278164
 POWELL| Reached  56% of maximal function calls                   250.2719278164
 POWELL| Reached  57% of maximal function calls                   242.8268068886
 POWELL| Reached  60% of maximal function calls                   242.8268068886
 POWELL| Reached  62% of maximal function calls                   242.7913915370
 POWELL| Reached  64% of maximal function calls                   237.2940748018
 POWELL| Reached  66% of maximal function calls                   234.1488619592
 POWELL| Reached  68% of maximal function calls                   232.0544158279
 POWELL| Reached  70% of maximal function calls                   231.7140033980
 POWELL| Reached  72% of maximal function calls                   231.6751691063
 POWELL| Reached  74% of maximal function calls                   231.6751691063
 POWELL| Reached  76% of maximal function calls                   231.5383380947
 POWELL| Reached  78% of maximal function calls                   231.5383380947
 POWELL| Reached  80% of maximal function calls                   231.5383380947
 POWELL| Reached  82% of maximal function calls                   231.5383380947
 POWELL| Reached  84% of maximal function calls                   231.5383380947
 POWELL| Reached  86% of maximal function calls                   231.5383380947
 POWELL| Reached  88% of maximal function calls                   231.5383380947
 POWELL| Reached  90% of maximal function calls                   231.5383380947
 POWELL| Reached  92% of maximal function calls                   231.5383380947
 POWELL| Reached  94% of maximal function calls                   231.5383380947
 POWELL| Reached  96% of maximal function calls                   231.5383380947
 POWELL| Reached  98% of maximal function calls                   231.5383380947
 POWELL| Reached 100% of maximal function calls                   231.5383380947
 POWELL| Reached 100% of maximal function calls                   231.5383380947
 POWELL| Exceeding maximum number of steps
 POWELL| Reached 100% of maximal function calls                   231.5383380947
 POWELL| RMS average of variables                                   0.0002642955
 POWELL| Start optimization   2 of total 100               rhobeg =   0.00078400
 POWELL| Inital value of function                                 231.5383380947
 POWELL| Reached   6% of maximal function calls                   231.5383380947
 POWELL| Reached   8% of maximal function calls                   228.2422220711
 POWELL| Reached  10% of maximal function calls                   227.0480099818
 POWELL| Reached  12% of maximal function calls                   227.0480099818
 POWELL| Reached  14% of maximal function calls                   227.0480099818
 POWELL| Reached  16% of maximal function calls                   227.0480099818
 POWELL| Reached  18% of maximal function calls                   227.0480099818
 POWELL| Reached  20% of maximal function calls                   227.0480099818
 POWELL| Reached  22% of maximal function calls                   227.0480099818
 POWELL| Reached  24% of maximal function calls                   220.1609549043
 POWELL| Reached  26% of maximal function calls                   220.1609549043
 POWELL| Reached  28% of maximal function calls                   211.8554738739
 POWELL| Reached  30% of maximal function calls                   211.8554738739
 POWELL| Reached  32% of maximal function calls                   211.8554738739
 POWELL| Reached  34% of maximal function calls                   211.8554738739
 POWELL| Reached  36% of maximal function calls                   211.8554738739
 POWELL| Reached  38% of maximal function calls                   211.8554738739
 POWELL| Reached  40% of maximal function calls                   166.7897991309
 POWELL| Reached  42% of maximal function calls                   166.7897991309
 POWELL| Reached  44% of maximal function calls                   166.7897991309
 POWELL| Reached  46% of maximal function calls                   166.7897991309
 POWELL| Reached  48% of maximal function calls                   166.7897991309
 POWELL| Reached  50% of maximal function calls                   166.7897991309
 POWELL| Reached  52% of maximal function calls                   166.7897991309
 POWELL| Reached  54% of maximal function calls                   166.7897991309
 POWELL| Reached  56% of maximal function calls                   166.7897991309
 POWELL| Reached  57% of maximal function calls                   146.5760432090
 POWELL| Reached  60% of maximal function calls                   108.9758601855
 POWELL| Reached  62% of maximal function calls                    71.0634460573
 POWELL| Reached  64% of maximal function calls                    70.0739482330
 POWELL| Reached  66% of maximal function calls                    67.1061268024
 POWELL| Reached  68% of maximal function calls                    65.0367673257
 POWELL| Reached  70% of maximal function calls                    65.0367673257
 POWELL| Reached  72% of maximal function calls                    65.0367673257
 POWELL| Reached  74% of maximal function calls                    65.0367673257
 POWELL| Reached  76% of maximal function calls                    65.0294281747
 POWELL| Reached  78% of maximal function calls                    64.7451049542
 POWELL| Reached  80% of maximal function calls                    64.4316490533
 POWELL| Reached  82% of maximal function calls                    64.4316490533
 POWELL| Reached  84% of maximal function calls                    64.4145510975
 POWELL| Reached  86% of maximal function calls                    64.4145510975
 POWELL| Reached  88% of maximal function calls                    64.4145510975
 POWELL| Reached  90% of maximal function calls                    64.4145510975
 POWELL| Reached  92% of maximal function calls                    64.4145510975
 POWELL| Reached  94% of maximal function calls                    64.4145510975
 POWELL| Reached  96% of maximal function calls                    64.4145510975
 POWELL| Reached  98% of maximal function calls                    64.4145510975
 POWELL| Reached 100% of maximal function calls                    64.4145510975
 POWELL| Reached 100% of maximal function calls                    64.4145510975
 POWELL| Exceeding maximum number of steps
 POWELL| Reached 100% of maximal function calls                    64.4145510975
 POWELL| RMS average of variables                                   0.0006606526
 POWELL| Start optimization   3 of total 100               rhobeg =   0.00076832
 POWELL| Inital value of function                                  64.4145510975
 POWELL| Reached   6% of maximal function calls                    64.4145510975
 POWELL| Reached   8% of maximal function calls                    63.5532844360
 POWELL| Reached  10% of maximal function calls                    63.5532844360
 POWELL| Reached  12% of maximal function calls                    63.5532844360
 POWELL| Reached  14% of maximal function calls                    63.5532844360
 POWELL| Reached  16% of maximal function calls                    63.5532844360
 POWELL| Reached  18% of maximal function calls                    63.5532844360
 POWELL| Reached  20% of maximal function calls                    63.5532844360
 POWELL| Reached  22% of maximal function calls                    63.5532844360
 POWELL| Reached  24% of maximal function calls                    59.1557962991
 POWELL| Reached  26% of maximal function calls                    59.1557962991
 POWELL| Reached  28% of maximal function calls                    55.6318027232
 POWELL| Reached  30% of maximal function calls                    55.6318027232
 POWELL| Reached  32% of maximal function calls                    55.6318027232
 POWELL| Reached  34% of maximal function calls                    55.6318027232
 POWELL| Reached  36% of maximal function calls                    55.6318027232
 POWELL| Reached  38% of maximal function calls                    55.6318027232
 POWELL| Reached  40% of maximal function calls                    36.4267826648
 POWELL| Reached  42% of maximal function calls                    36.4267826648
 POWELL| Reached  44% of maximal function calls                    36.4267826648
 POWELL| Reached  46% of maximal function calls                    36.4267826648
 POWELL| Reached  48% of maximal function calls                    36.4267826648
 POWELL| Reached  50% of maximal function calls                    36.4267826648
 POWELL| Reached  52% of maximal function calls                    36.4267826648
 POWELL| Reached  54% of maximal function calls                    36.4267826648
 POWELL| Reached  56% of maximal function calls                    36.4267826648
 POWELL| Reached  57% of maximal function calls                    34.9076506414
 POWELL| Reached  60% of maximal function calls                    26.2968074097
 POWELL| Reached  62% of maximal function calls                    26.2968074097
 POWELL| Reached  64% of maximal function calls                    26.2968074097
 POWELL| Reached  66% of maximal function calls                    26.2968074097
 POWELL| Reached  68% of maximal function calls                    26.2968074097
 POWELL| Reached  70% of maximal function calls                    26.2968074097
 POWELL| Reached  72% of maximal function calls                    26.2005695885
 POWELL| Reached  74% of maximal function calls                    25.7948432481
 POWELL| Reached  76% of maximal function calls                    25.4989323358
 POWELL| Reached  78% of maximal function calls                    25.4989323358
 POWELL| Reached  80% of maximal function calls                    25.4894086166
 POWELL| Reached  82% of maximal function calls                    25.3378791460
 POWELL| Reached  84% of maximal function calls                    25.2623155626
 POWELL| Reached  86% of maximal function calls                    25.2623155626
 POWELL| Reached  88% of maximal function calls                    25.2623155626
 POWELL| Reached  90% of maximal function calls                    25.2623155626
 POWELL| Reached  92% of maximal function calls                    25.2623155626
 POWELL| Reached  94% of maximal function calls                    25.2623155626
 POWELL| Reached  96% of maximal function calls                    25.2623155626
 POWELL| Reached  98% of maximal function calls                    25.2623155626
 POWELL| Reached 100% of maximal function calls                    25.2544854448
 POWELL| Reached 100% of maximal function calls                    25.2544854448
 POWELL| Exceeding maximum number of steps
 POWELL| Reached 100% of maximal function calls                    25.2544854448
 POWELL| RMS average of variables                                   0.0002861281
 POWELL| Start optimization   4 of total 100               rhobeg =   0.00075295
 POWELL| Inital value of function                                  25.2544854448
 POWELL| Reached   6% of maximal function calls                    25.2544854448
 POWELL| Reached   8% of maximal function calls                    25.2126430117
 POWELL| Reached  10% of maximal function calls                    25.2126430117
 POWELL| Reached  12% of maximal function calls                    25.2126430117
 POWELL| Reached  14% of maximal function calls                    25.2126430117
 POWELL| Reached  16% of maximal function calls                    25.2126430117
 POWELL| Reached  18% of maximal function calls                    25.2126430117
 POWELL| Reached  20% of maximal function calls                    25.2126430117
 POWELL| Reached  22% of maximal function calls                    25.2126430117
 POWELL| Reached  24% of maximal function calls                    22.3395383042
 POWELL| Reached  26% of maximal function calls                    22.3395383042
 POWELL| Reached  28% of maximal function calls                    20.8448810183
 POWELL| Reached  30% of maximal function calls                    20.8448810183
 POWELL| Reached  32% of maximal function calls                    20.8448810183
 POWELL| Reached  34% of maximal function calls                    20.8448810183
 POWELL| Reached  36% of maximal function calls                    20.8448810183
 POWELL| Reached  38% of maximal function calls                    20.8448810183
 POWELL| Reached  40% of maximal function calls                    13.2870323412
 POWELL| Reached  42% of maximal function calls                    13.2870323412
 POWELL| Reached  44% of maximal function calls                    13.2870323412
 POWELL| Reached  46% of maximal function calls                    13.2870323412
 POWELL| Reached  48% of maximal function calls                    13.2870323412
 POWELL| Reached  50% of maximal function calls                    13.2870323412
 POWELL| Reached  52% of maximal function calls                    13.2870323412
 POWELL| Reached  54% of maximal function calls                    13.2870323412
 POWELL| Reached  56% of maximal function calls                    13.2870323412
 POWELL| Reached  57% of maximal function calls                    11.9438478615
 POWELL| Reached  60% of maximal function calls                    11.3018631343
 POWELL| Reached  62% of maximal function calls                    11.3018631343
 POWELL| Reached  64% of maximal function calls                    11.3018631343
 POWELL| Reached  66% of maximal function calls                    11.3018631343
 POWELL| Reached  68% of maximal function calls                    11.3018631343
 POWELL| Reached  70% of maximal function calls                    11.3018631343
 POWELL| Reached  72% of maximal function calls                    11.0997321291
 POWELL| Reached  74% of maximal function calls                    11.0997321291
 POWELL| Reached  76% of maximal function calls                    11.0811283915
 POWELL| Reached  78% of maximal function calls                    10.9978908354
 POWELL| Reached  80% of maximal function calls                    10.9050950170
 POWELL| Reached  82% of maximal function calls                    10.9035092594
 POWELL| Reached  84% of maximal function calls                    10.8970671362
 POWELL| Reached  86% of maximal function calls                    10.8970671362
 POWELL| Reached  88% of maximal function calls                    10.8970671362
 POWELL| Reached  90% of maximal function calls                    10.8970671362
 POWELL| Reached  92% of maximal function calls                    10.8970671362
 POWELL| Reached  94% of maximal function calls                    10.8970671362
 POWELL| Reached  96% of maximal function calls                    10.8927390820
 POWELL| Reached  98% of maximal function calls                    10.8906588068
 POWELL| Reached 100% of maximal function calls                    10.8853384180
 POWELL| Reached 100% of maximal function calls                    10.8821814755
 POWELL| Exceeding maximum number of steps
 POWELL| Reached 100% of maximal function calls                    10.8821814755
 POWELL| RMS average of variables                                   0.0002358391
 POWELL| Start optimization   5 of total 100               rhobeg =   0.00073789
 POWELL| Inital value of function                                  10.8821814755
 POWELL| Reached   6% of maximal function calls                    10.8821814755
 POWELL| Reached   8% of maximal function calls                    10.8821814755
 POWELL| Reached  10% of maximal function calls                    10.8821814755
 POWELL| Reached  12% of maximal function calls                    10.8821814755
 POWELL| Reached  14% of maximal function calls                    10.8821814755
 POWELL| Reached  16% of maximal function calls                    10.8821814755
 POWELL| Reached  18% of maximal function calls                    10.8821814755
 POWELL| Reached  20% of maximal function calls                    10.8821814755
 POWELL| Reached  22% of maximal function calls                    10.8821814755
 POWELL| Reached  24% of maximal function calls                    10.8587700931
 POWELL| Reached  26% of maximal function calls                    10.8587700931
 POWELL| Reached  28% of maximal function calls                    10.8587700931
 POWELL| Reached  30% of maximal function calls                    10.8587700931
 POWELL| Reached  32% of maximal function calls                    10.8587700931
 POWELL| Reached  34% of maximal function calls                    10.8587700931
 POWELL| Reached  36% of maximal function calls                    10.8587700931
 POWELL| Reached  38% of maximal function calls                    10.8587700931
 POWELL| Reached  40% of maximal function calls                    10.7526988785
 POWELL| Reached  42% of maximal function calls                    10.7526988785
 POWELL| Reached  44% of maximal function calls                     9.9105602146
 POWELL| Reached  46% of maximal function calls                     9.9105602146
 POWELL| Reached  48% of maximal function calls                     8.1628746945
 POWELL| Reached  50% of maximal function calls                     8.1628746945
 POWELL| Reached  52% of maximal function calls                     8.1628746945
 POWELL| Reached  54% of maximal function calls                     8.1628746945
 POWELL| Reached  56% of maximal function calls                     8.1628746945
 POWELL| Reached  57% of maximal function calls                     8.0379434302
 POWELL| Reached  60% of maximal function calls                     8.0379434302
 POWELL| Reached  62% of maximal function calls                     8.0379434302
 POWELL| Reached  64% of maximal function calls                     8.0379434302
 POWELL| Reached  66% of maximal function calls                     7.9536701229
 POWELL| Reached  68% of maximal function calls                     7.8927045370
 POWELL| Reached  70% of maximal function calls                     7.8927045370
 POWELL| Reached  72% of maximal function calls                     7.8927045370
 POWELL| Reached  74% of maximal function calls                     7.7972822448
 POWELL| Reached  76% of maximal function calls                     7.7587304650
 POWELL| Reached  78% of maximal function calls                     7.7523338623
 POWELL| Reached  80% of maximal function calls                     7.7523338623
 POWELL| Reached  82% of maximal function calls                     7.7511335430
 POWELL| Reached  84% of maximal function calls                     7.7511335430
 POWELL| Reached  86% of maximal function calls                     7.7511335430
 POWELL| Reached  88% of maximal function calls                     7.7511335430
 POWELL| Reached  90% of maximal function calls                     7.7511335430
 POWELL| Reached  92% of maximal function calls                     7.7511335430
 POWELL| Reached  94% of maximal function calls                     7.7511335430
 POWELL| Reached  96% of maximal function calls                     7.7511335430
 POWELL| Reached  98% of maximal function calls                     7.7511335430
 POWELL| Reached 100% of maximal function calls                     7.7511335430
 POWELL| Reached 100% of maximal function calls                     7.7497805640
 POWELL| Exceeding maximum number of steps
 POWELL| Reached 100% of maximal function calls                     7.7497805640
 POWELL| RMS average of variables                                   0.0002268455
 POWELL| Start optimization   6 of total 100               rhobeg =   0.00072314
 POWELL| Inital value of function                                   7.7497805640
 POWELL| Reached   6% of maximal function calls                     7.7497805640
 POWELL| Reached   8% of maximal function calls                     7.7497805640
 POWELL| Reached  10% of maximal function calls                     7.7497805640
 POWELL| Reached  12% of maximal function calls                     7.7497805640
 POWELL| Reached  14% of maximal function calls                     7.7497805640
 POWELL| Reached  16% of maximal function calls                     7.7497805640
 POWELL| Reached  18% of maximal function calls                     7.7497805640
 POWELL| Reached  20% of maximal function calls                     7.7497805640
 POWELL| Reached  22% of maximal function calls                     7.7497805640
 POWELL| Reached  24% of maximal function calls                     7.6517496130
 POWELL| Reached  26% of maximal function calls                     7.6517496130
 POWELL| Reached  28% of maximal function calls                     7.6517496130
 POWELL| Reached  30% of maximal function calls                     7.6517496130
 POWELL| Reached  32% of maximal function calls                     7.6517496130
 POWELL| Reached  34% of maximal function calls                     7.6517496130
 POWELL| Reached  36% of maximal function calls                     7.6517496130
 POWELL| Reached  38% of maximal function calls                     7.6517496130
 POWELL| Reached  40% of maximal function calls                     7.6517496130
 POWELL| Reached  42% of maximal function calls                     7.6517496130
 POWELL| Reached  44% of maximal function calls                     7.6517496130
 POWELL| Reached  46% of maximal function calls                     7.6517496130
 POWELL| Reached  48% of maximal function calls                     7.3644671498
 POWELL| Reached  50% of maximal function calls                     7.3644671498
 POWELL| Reached  52% of maximal function calls                     7.3644671498
 POWELL| Reached  54% of maximal function calls                     7.3644671498
 POWELL| Reached  56% of maximal function calls                     7.3644671498
 POWELL| Reached  57% of maximal function calls                     7.3644671498
 POWELL| Reached  60% of maximal function calls                     7.3644671498
 POWELL| Reached  62% of maximal function calls                     7.3644671498
 POWELL| Reached  64% of maximal function calls                     7.3644671498
 POWELL| Reached  66% of maximal function calls                     6.0055397872
 POWELL| Reached  68% of maximal function calls                     6.0055397872
 POWELL| Reached  70% of maximal function calls                     6.0054132544
 POWELL| Reached  72% of maximal function calls                     5.9727213639
 POWELL| Reached  74% of maximal function calls                     5.9575928877
 POWELL| Reached  76% of maximal function calls                     5.9575928877
 POWELL| Reached  78% of maximal function calls                     5.9523033486
 POWELL| Reached  80% of maximal function calls                     5.9146625099
 POWELL| Reached  82% of maximal function calls                     5.9146625099
 POWELL| Reached  84% of maximal function calls                     5.9146625099
 POWELL| Reached  86% of maximal function calls                     5.9146625099
 POWELL| Reached  88% of maximal function calls                     5.9146625099
 POWELL| Reached  90% of maximal function calls                     5.9146625099
 POWELL| Reached  92% of maximal function calls                     5.9146625099
 POWELL| Reached  94% of maximal function calls                     5.9146625099
 POWELL| Reached  96% of maximal function calls                     5.9146625099
 POWELL| Reached  98% of maximal function calls                     5.9146625099
 POWELL| Reached 100% of maximal function calls                     5.9146625099
[...]
 POWELL| Reached  78% of maximal function calls                     2.1650348087
 POWELL| Reached  79% of maximal function calls                     2.1650348087
 POWELL| Reached  80% of maximal function calls                     2.1650348087
 POWELL| Reached  80% of maximal function calls                     2.1650348087
 POWELL| Reached  81% of maximal function calls                     2.1650348087
 POWELL| Reached  82% of maximal function calls                     2.1650338547
 POWELL| Reached  83% of maximal function calls                     2.1650338547
 POWELL| Reached  84% of maximal function calls                     2.1650338547
 POWELL| Reached  84% of maximal function calls                     2.1650335396
 POWELL| Reached  85% of maximal function calls                     2.1650335396
 POWELL| Reached  86% of maximal function calls                     2.1650335396
 POWELL| Reached  87% of maximal function calls                     2.1650335396
 POWELL| Reached  88% of maximal function calls                     2.1650335396
 POWELL| Reached  88% of maximal function calls                     2.1650335396
 POWELL| Reached  89% of maximal function calls                     2.1650335396
 POWELL| Reached  90% of maximal function calls                     2.1650334329
 POWELL| Reached  91% of maximal function calls                     2.1650333333
 POWELL| Reached  92% of maximal function calls                     2.1650333333
 POWELL| Reached  92% of maximal function calls                     2.1650333217
 POWELL| Reached  93% of maximal function calls                     2.1650333217
 POWELL| Reached  94% of maximal function calls                     2.1650332827
 POWELL| Reached  95% of maximal function calls                     2.1650332807
 POWELL| Reached  96% of maximal function calls                     2.1650327455
 POWELL| Reached  96% of maximal function calls                     2.1650327455
 POWELL| Reached  97% of maximal function calls                     2.1650327455
 POWELL| Reached  98% of maximal function calls                     2.1650326189
 POWELL| Reached  99% of maximal function calls                     2.1650324031
 POWELL| Reached 100% of maximal function calls                     2.1650324031
 POWELL| Reached 100% of maximal function calls                     2.1650324031
 POWELL| Exceeding maximum number of steps
 POWELL| Reached 100% of maximal function calls                     2.1650324031
 POWELL| RMS average of variables                                   0.0000002919
 POWELL| Start optimization   3 of total  50               rhobeg =   0.00009604
 POWELL| Inital value of function                                   2.1650324031
 POWELL| Reached   1% of maximal function calls                     2.1650324031
 POWELL| Reached   2% of maximal function calls                     2.1650324031
 POWELL| Reached   3% of maximal function calls                     2.1650324031
 POWELL| Reached   4% of maximal function calls                     2.1650324031
 POWELL| Reached   4% of maximal function calls                     2.1650324031
 POWELL| Reached   5% of maximal function calls                     2.1650324031
 POWELL| Reached   6% of maximal function calls                     2.1650324031
 POWELL| Reached   7% of maximal function calls                     2.1650324031
 POWELL| Reached   8% of maximal function calls                     2.1650324031
 POWELL| Reached   8% of maximal function calls                     2.1650324031
 POWELL| Reached   9% of maximal function calls                     2.1650324031
 POWELL| Reached  10% of maximal function calls                     2.1650324031
 POWELL| Reached  11% of maximal function calls                     2.1650324031
 POWELL| Reached  12% of maximal function calls                     2.1650324031
 POWELL| Reached  12% of maximal function calls                     2.1650324031
 POWELL| Reached  13% of maximal function calls                     2.1650324031
 POWELL| Reached  14% of maximal function calls                     2.1650324031
 POWELL| Reached  15% of maximal function calls                     2.1650324031
 POWELL| Reached  16% of maximal function calls                     2.1650324031
 POWELL| Reached  16% of maximal function calls                     2.1650324031
 POWELL| Reached  17% of maximal function calls                     2.1650324031
 POWELL| Reached  18% of maximal function calls                     2.1650324031
 POWELL| Reached  19% of maximal function calls                     2.1650324031
 POWELL| Reached  20% of maximal function calls                     2.1650324031
 POWELL| Reached  20% of maximal function calls                     2.1650324031
 POWELL| Reached  21% of maximal function calls                     2.1650324031
 POWELL| Reached  22% of maximal function calls                     2.1650324031
 POWELL| Reached  23% of maximal function calls                     2.1650324031
 POWELL| Reached  24% of maximal function calls                     2.1650324031
 POWELL| Reached  24% of maximal function calls                     2.1650324031
 POWELL| Reached  25% of maximal function calls                     2.1650324031
 POWELL| Reached  26% of maximal function calls                     2.1650324031
 POWELL| Reached  27% of maximal function calls                     2.1650324031
 POWELL| Reached  28% of maximal function calls                     2.1650324031
 POWELL| Reached  28% of maximal function calls                     2.1650324031
 POWELL| Reached  29% of maximal function calls                     2.1650324031
 POWELL| Reached  30% of maximal function calls                     2.1650324031
 POWELL| Reached  31% of maximal function calls                     2.1650324031
 POWELL| Reached  32% of maximal function calls                     2.1650324031
 POWELL| Reached  32% of maximal function calls                     2.1650324031
 POWELL| Reached  33% of maximal function calls                     2.1650324031
 POWELL| Reached  34% of maximal function calls                     2.1650324031
 POWELL| Reached  35% of maximal function calls                     2.1650324031
 POWELL| Reached  36% of maximal function calls                     2.1650324031
 POWELL| Reached  36% of maximal function calls                     2.1650324031
 POWELL| Reached  37% of maximal function calls                     2.1650324031
 POWELL| Reached  38% of maximal function calls                     2.1650322650
 POWELL| Reached  39% of maximal function calls                     2.1650322650
 POWELL| Reached  40% of maximal function calls                     2.1650322650
 POWELL| Reached  40% of maximal function calls                     2.1650322650
 POWELL| Reached  41% of maximal function calls                     2.1650322650
 POWELL| Reached  42% of maximal function calls                     2.1650322650
 POWELL| Reached  43% of maximal function calls                     2.1650322650
 POWELL| Reached  44% of maximal function calls                     2.1650322650
 POWELL| Reached  44% of maximal function calls                     2.1650322650
 POWELL| Reached  45% of maximal function calls                     2.1650322650
 POWELL| Reached  46% of maximal function calls                     2.1650322650
 POWELL| Reached  47% of maximal function calls                     2.1650322650
 POWELL| Reached  48% of maximal function calls                     2.1650322650
 POWELL| Reached  48% of maximal function calls                     2.1650321373
 POWELL| Reached  49% of maximal function calls                     2.1650321373
 POWELL| Reached  50% of maximal function calls                     2.1650321373
 POWELL| Reached  51% of maximal function calls                     2.1650321373
 POWELL| Reached  52% of maximal function calls                     2.1650321373
 POWELL| Reached  52% of maximal function calls                     2.1650321373
 POWELL| Reached  53% of maximal function calls                     2.1650320589
 POWELL| Reached  54% of maximal function calls                     2.1650320589
 POWELL| Reached  55% of maximal function calls                     2.1650320589
 POWELL| Reached  56% of maximal function calls                     2.1650320264
 POWELL| Reached  56% of maximal function calls                     2.1650319569
 POWELL| Reached  57% of maximal function calls                     2.1650319569
 POWELL| Reached  58% of maximal function calls                     2.1650319482
 POWELL| Reached  59% of maximal function calls                     2.1650319482
 POWELL| Reached  60% of maximal function calls                     2.1650319482
 POWELL| Reached  60% of maximal function calls                     2.1650319482
 POWELL| Reached  61% of maximal function calls                     2.1650318471
 POWELL| Reached  62% of maximal function calls                     2.1650318471
 POWELL| Reached  63% of maximal function calls                     2.1650318471
 POWELL| Reached  64% of maximal function calls                     2.1650318471
 POWELL| Reached  64% of maximal function calls                     2.1650318471
 POWELL| Reached  65% of maximal function calls                     2.1650318471
 POWELL| Reached  66% of maximal function calls                     2.1650316856
 POWELL| Reached  67% of maximal function calls                     2.1650316856
 POWELL| Reached  68% of maximal function calls                     2.1650316856
 POWELL| Reached  68% of maximal function calls                     2.1650316856
 POWELL| Reached  69% of maximal function calls                     2.1650316856
 POWELL| Reached  70% of maximal function calls                     2.1650316576
 POWELL| Reached  71% of maximal function calls                     2.1650316576
 POWELL| Reached  72% of maximal function calls                     2.1650316576
 POWELL| Reached  72% of maximal function calls                     2.1650316223
 POWELL| Reached  73% of maximal function calls                     2.1650316013
 POWELL| Reached  74% of maximal function calls                     2.1650315969
 POWELL| Reached  75% of maximal function calls                     2.1650315916
 POWELL| Reached  76% of maximal function calls                     2.1650315916
 POWELL| Reached  76% of maximal function calls                     2.1650315916
 POWELL| Reached  77% of maximal function calls                     2.1650315869
 POWELL| Reached  78% of maximal function calls                     2.1650315693
 POWELL| Reached  79% of maximal function calls                     2.1650315693
 POWELL| Reached  80% of maximal function calls                     2.1650315579
 POWELL| Reached  80% of maximal function calls                     2.1650314895
 POWELL| Reached  81% of maximal function calls                     2.1650314895
 POWELL| Reached  82% of maximal function calls                     2.1650314895
 POWELL| Reached  83% of maximal function calls                     2.1650314895
 POWELL| Reached  84% of maximal function calls                     2.1650314891
 POWELL| Reached  84% of maximal function calls                     2.1650314891
 POWELL| Reached  85% of maximal function calls                     2.1650314891
 POWELL| Reached  86% of maximal function calls                     2.1650314891
 POWELL| Reached  87% of maximal function calls                     2.1650314891
 POWELL| Reached  88% of maximal function calls                     2.1650314891
 POWELL| Reached  88% of maximal function calls                     2.1650314891
 POWELL| Reached  89% of maximal function calls                     2.1650314891
 POWELL| Reached  90% of maximal function calls                     2.1650314891
 POWELL| Reached  91% of maximal function calls                     2.1650314891
 POWELL| Reached  92% of maximal function calls                     2.1650314891
 POWELL| Reached  92% of maximal function calls                     2.1650314891
 POWELL| Reached  93% of maximal function calls                     2.1650314886
 POWELL| Reached  94% of maximal function calls                     2.1650314886
 POWELL| Reached  95% of maximal function calls                     2.1650314837
 POWELL| Reached  96% of maximal function calls                     2.1650314837
 POWELL| Reached  96% of maximal function calls                     2.1650314837
 POWELL| Reached  97% of maximal function calls                     2.1650314837
 POWELL| Reached  98% of maximal function calls                     2.1650314837
 POWELL| Reached  99% of maximal function calls                     2.1650314837
 POWELL| Reached 100% of maximal function calls                     2.1650314837
 POWELL| Reached 100% of maximal function calls                     2.1650314837
 POWELL| Exceeding maximum number of steps
 POWELL| Reached 100% of maximal function calls                     2.1650314837
 POWELL| RMS average of variables                                   0.0000000003
 POWELL| Number of function evaluations                                      250
 POWELL| Final value of function                                    2.1650314837

 POWELL| Final errors of target values

 Reference configuration          1               Method number                1
    L    N    Occupation      Eigenvalue [eV]           dE [eV]          dCharge 
    0    1          2.00      -168.3196932713 SC   0.004909[ 1]    -0.000001[ X]
    0    2          2.00       -11.7126840570 VA  -0.000729[ 9]     0.001620[ 1]
    0    3          0.00         0.0099905248 U1  -0.005781[ 1]     0.000411[ X]
    0    4          0.00         5.3634673940 U2  -0.018642[ X]     0.001727[ 0]
    1    1          6.00      -115.5068819760 SC   0.003306[ 0]    -0.000000[ X]
    1    2          2.00        -3.8843329259 VA  -0.001548[75]     0.000131[ X]
    1    3          0.00         1.5595571922 U1   0.000368[ X]    -0.000122[ X]
    1    4          0.00         7.7063199894 U2   0.001983[ X]    -0.000240[ 0]
    2    1         10.00       -29.2879261898 VA  -0.000230[ X]    -0.000518[ 0]
    2    2          0.00         1.6837705879 U1   0.014869[14]    -0.005441[ 0]
    2    3          0.00         5.6593380996 U2   0.067296[ 0]    -0.006691[ 0]
    3    1          0.00         3.7845039644 U1   0.000748[ X]    -0.000003[ X]
    s-states N=    1                   Wavefunction at r=0:         0.481679[ 0]
    s-states N=    2                   Wavefunction at r=0:         0.828174[ 0]
    s-states N=    3                   Wavefunction at r=0:        -0.308844[ 0]
    s-states N=    4                   Wavefunction at r=0:         0.452040[ 0]

 Number of target values reached:                                      11 of  21



                             NORMAL TERMINATION OF     
                                                       
                           ****  ******  ****   ****   
                          **  ** ****** **  ** ******  
                          ******   **   **  ** **  **  
                          **  **   **    ****  **  **  


 -------------------------------------------------------------------------------
 -                                                                             -
 -                                DBCSR STATISTICS                             -
 -                                                                             -
 -------------------------------------------------------------------------------
 COUNTER                                    TOTAL       BLAS       SMM       ACC
 flops inhomo. stacks                           0       0.0%      0.0%      0.0%
 flops total                         0.000000E+00       0.0%      0.0%      0.0%
 flops max/rank                      0.000000E+00       0.0%      0.0%      0.0%
 matmuls inhomo. stacks                         0       0.0%      0.0%      0.0%
 matmuls total                                  0       0.0%      0.0%      0.0%
 number of processed stacks                     0       0.0%      0.0%      0.0%
 average stack size                                     0.0       0.0       0.0
 marketing flops                     0.000000E+00
 -------------------------------------------------------------------------------

 MEMORY| Estimated peak process memory [MiB]                                  47

 -------------------------------------------------------------------------------
 -                                                                             -
 -                           R E F E R E N C E S                               -
 -                                                                             -
 -------------------------------------------------------------------------------
 
 CP2K version 7.0 (Development Version), the CP2K developers group (2018).
 CP2K is freely available from https://www.cp2k.org/ .

 Schuett, Ole; Messmer, Peter; Hutter, Juerg; VandeVondele, Joost. 
 Electronic Structure Calculations on Graphics Processing Units, John Wiley & Sons, Ltd, 173-190 (2016). 
 GPU-Accelerated Sparse Matrix-Matrix Multiplication for Linear Scaling Density Functional Theory.
 http://dx.doi.org/10.1002/9781118670712.ch8


 Borstnik, U; VandeVondele, J; Weber, V; Hutter, J. 
 PARALLEL COMPUTING, 40 (5-6), 47-58 (2014). 
 Sparse matrix multiplication: The distributed block-compressed sparse
 row library.
 http://dx.doi.org/10.1016/j.parco.2014.03.012


 Hutter, J; Iannuzzi, M; Schiffmann, F; VandeVondele, J. 
 WILEY INTERDISCIPLINARY REVIEWS-COMPUTATIONAL MOLECULAR SCIENCE, 4 (1), 15-25 (2014). 
 CP2K: atomistic simulations of condensed matter systems.
 http://dx.doi.org/10.1002/wcms.1159


 Frigo, M; Johnson, SG. 
 PROCEEDINGS OF THE IEEE, 93 (2), 216-231 (2005). 
 The design and implementation of FFTW3.
 http://dx.doi.org/10.1109/JPROC.2004.840301


 Perdew, JP; Burke, K; Ernzerhof, M. 
 PHYSICAL REVIEW LETTERS, 77 (18), 3865-3868 (1996). 
 Generalized gradient approximation made simple.
 http://dx.doi.org/10.1103/PhysRevLett.77.3865


 -------------------------------------------------------------------------------
 -                                                                             -
 -                                T I M I N G                                  -
 -                                                                             -
 -------------------------------------------------------------------------------
 SUBROUTINE                       CALLS  ASD         SELF TIME        TOTAL TIME
                                MAXIMUM       AVERAGE  MAXIMUM  AVERAGE  MAXIMUM
 CP2K                                 1  1.0    0.002    0.002   50.069   50.069
 atom_code                            1  2.0    0.000    0.000   50.067   50.067
 atom_pseudo_opt                      1  3.0    1.452    1.452   50.066   50.066
 calculate_atom                     769  4.0    0.002    0.002   47.707   47.707
 calculate_atom_restricted          769  5.0   16.403   16.403   47.705   47.705
 calculate_atom_vxc_lda            9239  6.0   29.455   29.455   31.302   31.302
 xc_functional_eval                9239  7.0    0.020    0.020    1.839    1.839
 pbe_lda_eval                      9239  8.0    1.818    1.818    1.818    1.818
 -------------------------------------------------------------------------------

 The number of warnings for this run is : 0
 
 -------------------------------------------------------------------------------
  **** **** ******  **  PROGRAM ENDED AT                 2018-06-24 21:36:50.309
 ***** ** ***  *** **   PROGRAM RAN ON                                    tcpc01
 **    ****   ******    PROGRAM RAN BY                                    hutter
 ***** **    ** ** **   PROGRAM PROCESS ID                                  3396
  **** **  *******  **  PROGRAM STOPPED IN /data/hutter/pseudo/UZH2018/PBE/Ge/q2
                                           2
