
  **** **** ******  **  PROGRAM STARTED AT               2018-06-24 20:00:09.392
 ***** ** ***  *** **   PROGRAM STARTED ON                                tcpc01
 **    ****   ******    PROGRAM STARTED BY                                hutter
 ***** **    ** ** **   PROGRAM PROCESS ID                                  2173
  **** **  *******  **  PROGRAM STARTED IN /data/hutter/pseudo/UZH2018/PBE/Fe/q1
                                           6

 CP2K| version string:                    CP2K version 7.0 (Development Version)
 CP2K| source code revision number:                                    svn:18485
 CP2K| cp2kflags: libint fftw3 libxc libderiv_max_am1=5 libint_max_am=6 spglib  
 CP2K| is freely available from                            https://www.cp2k.org/
 CP2K| Program compiled at                         Wed Jun 20 10:41:43 CEST 2018
 CP2K| Program compiled on                                                tcpc01
 CP2K| Program compiled for                                                local
 CP2K| Data directory path                        /data/hutter/CURRENT/cp2k/data
 CP2K| Input file name                                                    Fe.inp

 GLOBAL| Method name                                                        ATOM
 GLOBAL| Project name                                                    PROJECT
 GLOBAL| Preferred FFT library                                             FFTW3
 GLOBAL| Preferred diagonalization lib.                                       SL
 GLOBAL| Run type                                                   ENERGY_FORCE
 GLOBAL| All-to-all communication in single precision                          F
 GLOBAL| FFTs using library dependent lengths                                  F
 GLOBAL| Global print level                                               MEDIUM
 GLOBAL| Total number of message passing processes                             1
 GLOBAL| Number of threads for this process                                    1
 GLOBAL| This output is from process                                           0
 GLOBAL| CPU model name :  Intel(R) Xeon(R) CPU           X5570  @ 2.93GHz

 MEMORY| system memory details [Kb]
 MEMORY|                        rank 0           min           max       average
 MEMORY| MemTotal             37009584      37009584      37009584      37009584
 MEMORY| MemFree              32329676      32329676      32329676      32329676
 MEMORY| Buffers                297796        297796        297796        297796
 MEMORY| Cached                2033576       2033576       2033576       2033576
 MEMORY| Slab                   273068        273068        273068        273068
 MEMORY| SReclaimable           204036        204036        204036        204036
 MEMORY| MemLikelyFree        34865084      34865084      34865084      34865084


 *** Fundamental physical constants (SI units) ***

 *** Literature: B. J. Mohr and B. N. Taylor,
 ***             CODATA recommended values of the fundamental physical
 ***             constants: 2006, Web Version 5.1
 ***             http://physics.nist.gov/constants

 Speed of light in vacuum [m/s]                             2.99792458000000E+08
 Magnetic constant or permeability of vacuum [N/A**2]       1.25663706143592E-06
 Electric constant or permittivity of vacuum [F/m]          8.85418781762039E-12
 Planck constant (h) [J*s]                                  6.62606896000000E-34
 Planck constant (h-bar) [J*s]                              1.05457162825177E-34
 Elementary charge [C]                                      1.60217648700000E-19
 Electron mass [kg]                                         9.10938215000000E-31
 Electron g factor [ ]                                     -2.00231930436220E+00
 Proton mass [kg]                                           1.67262163700000E-27
 Fine-structure constant                                    7.29735253760000E-03
 Rydberg constant [1/m]                                     1.09737315685270E+07
 Avogadro constant [1/mol]                                  6.02214179000000E+23
 Boltzmann constant [J/K]                                   1.38065040000000E-23
 Atomic mass unit [kg]                                      1.66053878200000E-27
 Bohr radius [m]                                            5.29177208590000E-11

 *** Conversion factors ***

 [u] -> [a.u.]                                              1.82288848426455E+03
 [Angstrom] -> [Bohr] = [a.u.]                              1.88972613288564E+00
 [a.u.] = [Bohr] -> [Angstrom]                              5.29177208590000E-01
 [a.u.] -> [s]                                              2.41888432650478E-17
 [a.u.] -> [fs]                                             2.41888432650478E-02
 [a.u.] -> [J]                                              4.35974393937059E-18
 [a.u.] -> [N]                                              8.23872205491840E-08
 [a.u.] -> [K]                                              3.15774647902944E+05
 [a.u.] -> [kJ/mol]                                         2.62549961709828E+03
 [a.u.] -> [kcal/mol]                                       6.27509468713739E+02
 [a.u.] -> [Pa]                                             2.94210107994716E+13
 [a.u.] -> [bar]                                            2.94210107994716E+08
 [a.u.] -> [atm]                                            2.90362800883016E+08
 [a.u.] -> [eV]                                             2.72113838565563E+01
 [a.u.] -> [Hz]                                             6.57968392072181E+15
 [a.u.] -> [1/cm] (wave numbers)                            2.19474631370540E+05
 [a.u./Bohr**2] -> [1/cm]                                   5.14048714338585E+03
 
 DBCSR| Multiplication driver                                               BLAS
 DBCSR| Multrec recursion limit                                              512
 DBCSR| Multiplication stack size                                           1000
 DBCSR| Maximum elements for images                                    UNLIMITED
 DBCSR| Multiplicative factor virtual images                                   1
 DBCSR| Multiplication size stacks                                             3



                           ****  ******  ****   ****   
                          **  ** ****** **  ** ******  
                          ******   **   **  ** **  **  
                          **  **   **    ****  **  **  
                                                       
                             University of Zurich      
                                 2009 - 2015           
                                                       
                                 Version 0.0           
                                                                   


 Atomic Energy Calculation             Iron [Fe]             Atomic number:   26


 *******************************************************************************
 ************************** Calculate Reference States *************************
 *******************************************************************************

 METHOD    | Restricted Kohn-Sham Calculation
 METHOD    | Relativistic Calculation using Douglas-Kroll 3rd order
 FUNCTIONAL| ROUTINE=NEW
 FUNCTIONAL| PBE:
 FUNCTIONAL| J.P.Perdew, K.Burke, M.Ernzerhof, Phys. Rev. Letter, vol. 77, n 18,
 FUNCTIONAL|  pp. 3865-3868, (1996){spin unpolarized}                           

 Electronic structure
    Total number of core electrons                                          0.00
    Total number of valence electrons                                      26.00
    Total number of electrons                                              26.00
    Multiplicity                                                   not specified
    S      2.00  2.00  2.00  2.00
    P      6.00  6.00
    D      6.00


 *******************************************************************************
                  Iteration          Convergence                     Energy [au]
 *******************************************************************************
                          1         14.5308                   -1219.983617934814
                          2         6.47172                   -1188.834999194871
                          3         5.36702                   -1256.060206142836
                          4        0.694367                   -1271.424756438494
                          5        0.458848                   -1272.032902570982
                          6        0.158803                   -1272.229627316170
                          7        0.470867E-01               -1272.251230087052
                          8        0.432939E-03               -1272.253489192637
                          9        0.332565E-04               -1272.253489278488
                         10        0.809780E-05               -1272.253489279080
                         11        0.829571E-06               -1272.253489279165
                         12        0.659627E-06               -1272.253489279160
                         13        0.186729E-07               -1272.253489279163

 Energy components [Hartree]           Total Energy ::        -1272.253489279163
                                        Band Energy ::         -750.238776530106
                                     Kinetic Energy ::         1325.182495790503
                                   Potential Energy ::        -2597.435985069666
                                      Virial (-V/T) ::            1.960059081161
                                        Core Energy ::        -1755.112465660628
                                          XC Energy ::          -55.718373493336
                                     Coulomb Energy ::          538.577349874801
                                        Confinement ::            0.000000100898

 Orbital energies  State     L     Occupation   Energy[a.u.]          Energy[eV]

                       1     0          2.000    -256.986073        -6992.946669
                       2     0          2.000     -30.101994         -819.116902
                       3     0          2.000      -3.452527          -93.948046
                       4     0          2.000      -0.194251           -5.285848
                       5     0          0.000       0.033099            0.900675
                       6     0          0.000       0.231551            6.300825

                       1     1          6.000     -25.647686         -697.909025
                       2     1          6.000      -2.204788          -59.995339
                       3     1          0.000      -0.047112           -1.281988
                       4     1          0.000       0.095976            2.611651

                       1     2          6.000      -0.275707           -7.502370
                       2     2          0.000       0.071576            1.947686
                       3     2          0.000       0.240572            6.546299

                       1     3          0.000       0.144851            3.941588


 Total Electron Density at R=0:                                     23190.392199

 *******************************************************************************
 ********************* Optimize Pseudopotential Parameters *********************
 *******************************************************************************

 POWELL| Start optimization procedure

 POWELL| Total number of parameters in optimization                           13

 POWELL| Initial errors of target values

 Reference configuration          1               Method number                1
    L    N    Occupation      Eigenvalue [eV]           dE [eV]          dCharge 
    0    1          2.00       -93.9717486291 SC  -0.023702[13]    -0.000000[ X]
    0    2          2.00        -5.2823180008 VA   0.003530[80]     0.000775[ 0]
    0    3          0.00         0.8992348467 U1  -0.001440[ X]     0.000333[ X]
    0    4          0.00         6.2946889144 U2  -0.006136[ X]     0.000631[ 0]
    1    1          6.00       -59.9837068280 SC   0.011632[ 2]     0.000021[ X]
    1    2          0.00        -1.2737961398 U1   0.008192[ 0]    -0.000839[ X]
    1    3          0.00         2.6178411256 U2   0.006190[ X]    -0.000246[ 0]
    2    1          6.00        -7.5013654147 VA   0.001005[ 4]     0.000311[ 0]
    2    2          0.00         1.9486706632 U1   0.000985[ X]    -0.000141[ X]
    2    3          0.00         6.5525389928 U2   0.006240[ X]    -0.001079[ 0]
    3    1          0.00         3.9418272112 U1   0.000239[ X]    -0.000007[ X]

 Number of target values reached:                                      12 of  19

 POWELL| Start optimization   1 of total 100               rhobeg =   0.00040000
 POWELL| Inital value of function                                  14.9819720890
 POWELL| Reached   6% of maximal function calls                    14.9819720890
 POWELL| Reached   8% of maximal function calls                    14.9819720890
 POWELL| Reached  10% of maximal function calls                    14.9819720890
 POWELL| Reached  12% of maximal function calls                    14.9819720890
 POWELL| Reached  14% of maximal function calls                    14.9819720890
 POWELL| Reached  16% of maximal function calls                    14.9819720890
 POWELL| Reached  18% of maximal function calls                    14.9760910027
 POWELL| Reached  20% of maximal function calls                    14.9760910027
 POWELL| Reached  22% of maximal function calls                    14.8727005068
 POWELL| Reached  24% of maximal function calls                    14.8727005068
 POWELL| Reached  26% of maximal function calls                    14.8727005068
 POWELL| Reached  28% of maximal function calls                    14.8727005068
 POWELL| Reached  30% of maximal function calls                    14.8727005068
 POWELL| Reached  32% of maximal function calls                    14.8727005068
 POWELL| Reached  34% of maximal function calls                    14.8727005068
 POWELL| Reached  36% of maximal function calls                    14.8727005068
 POWELL| Reached  38% of maximal function calls                    14.8727005068
 POWELL| Reached  40% of maximal function calls                    14.8727005068
 POWELL| Reached  42% of maximal function calls                    14.8727005068
 POWELL| Reached  44% of maximal function calls                    14.8727005068
 POWELL| Reached  46% of maximal function calls                    14.8727005068
 POWELL| Reached  48% of maximal function calls                    14.8727005068
 POWELL| Reached  50% of maximal function calls                    14.8727005068
 POWELL| Reached  52% of maximal function calls                    14.8727005068
 POWELL| Reached  54% of maximal function calls                    14.8727005068
 POWELL| Reached  56% of maximal function calls                    14.8727005068
 POWELL| Reached  57% of maximal function calls                    14.8727005068
 POWELL| Reached  60% of maximal function calls                    14.7787887322
 POWELL| Reached  62% of maximal function calls                    14.7787887322
 POWELL| Reached  64% of maximal function calls                    14.7787887322
 POWELL| Reached  66% of maximal function calls                    14.7787887322
 POWELL| Reached  68% of maximal function calls                    14.7787887322
 POWELL| Reached  70% of maximal function calls                    14.7783767995
 POWELL| Reached  72% of maximal function calls                    14.7780381103
 POWELL| Reached  74% of maximal function calls                    14.7780375136
 POWELL| Reached  76% of maximal function calls                    14.7780322570
 POWELL| Reached  78% of maximal function calls                    14.7778577295
 POWELL| Reached  80% of maximal function calls                    14.7778577295
 POWELL| Reached  82% of maximal function calls                    14.7778577295
 POWELL| Reached  84% of maximal function calls                    14.7778577295
 POWELL| Reached  86% of maximal function calls                    14.7778577295
 POWELL| Reached  88% of maximal function calls                    14.7778540746
 POWELL| Reached  90% of maximal function calls                    14.7778540746
 POWELL| Reached  92% of maximal function calls                    14.7778538193
 POWELL| Reached  94% of maximal function calls                    14.7778538193
 POWELL| Reached  96% of maximal function calls                    14.7778524360
 POWELL| Reached  98% of maximal function calls                    14.7778524360
 POWELL| Reached 100% of maximal function calls                    14.7778523618
 POWELL| Reached 100% of maximal function calls                    14.7778461749
 POWELL| Exceeding maximum number of steps
 POWELL| Reached 100% of maximal function calls                    14.7778461749
 POWELL| RMS average of variables                                   0.0001115488
 POWELL| Start optimization   2 of total 100               rhobeg =   0.00039200
 POWELL| Inital value of function                                  14.7778461749
 POWELL| Reached   6% of maximal function calls                    14.7778461749
 POWELL| Reached   8% of maximal function calls                    14.7778461749
 POWELL| Reached  10% of maximal function calls                    14.7778461749
 POWELL| Reached  12% of maximal function calls                    14.7778461749
 POWELL| Reached  14% of maximal function calls                    14.7778461749
 POWELL| Reached  16% of maximal function calls                    14.7778461749
 POWELL| Reached  18% of maximal function calls                    14.7778461749
 POWELL| Reached  20% of maximal function calls                    14.7778461749
 POWELL| Reached  22% of maximal function calls                    14.7778461749
 POWELL| Reached  24% of maximal function calls                    14.7778461749
 POWELL| Reached  26% of maximal function calls                    14.7778461749
 POWELL| Reached  28% of maximal function calls                    14.7778461749
 POWELL| Reached  30% of maximal function calls                    14.7778461749
 POWELL| Reached  32% of maximal function calls                    14.7778461749
 POWELL| Reached  34% of maximal function calls                    14.7778461749
 POWELL| Reached  36% of maximal function calls                    14.7778461749
 POWELL| Reached  38% of maximal function calls                    14.7778461749
 POWELL| Reached  40% of maximal function calls                    14.7778461749
 POWELL| Reached  42% of maximal function calls                    14.7778461749
 POWELL| Reached  44% of maximal function calls                    14.7723582489
 POWELL| Reached  46% of maximal function calls                    14.7723582489
 POWELL| Reached  48% of maximal function calls                    14.7723582489
 POWELL| Reached  50% of maximal function calls                    14.7723582489
 POWELL| Reached  52% of maximal function calls                    14.7723582489
 POWELL| Reached  54% of maximal function calls                    14.7723582489
 POWELL| Reached  56% of maximal function calls                    14.7723582489
 POWELL| Reached  57% of maximal function calls                    14.7723582489
 POWELL| Reached  60% of maximal function calls                    14.7723582489
 POWELL| Reached  62% of maximal function calls                    14.7723582489
 POWELL| Reached  64% of maximal function calls                    14.7723582489
 POWELL| Reached  66% of maximal function calls                    14.7723582489
 POWELL| Reached  68% of maximal function calls                    14.7692060646
 POWELL| Reached  70% of maximal function calls                    14.7690859807
 POWELL| Reached  72% of maximal function calls                    14.7626302282
 POWELL| Reached  74% of maximal function calls                    14.7582455666
 POWELL| Reached  76% of maximal function calls                    14.7582223822
 POWELL| Reached  78% of maximal function calls                    14.7582223822
 POWELL| Reached  80% of maximal function calls                    14.7582223822
 POWELL| Reached  82% of maximal function calls                    14.7582223822
 POWELL| Reached  84% of maximal function calls                    14.7581938941
 POWELL| Reached  86% of maximal function calls                    14.7581912579
 POWELL| Reached  88% of maximal function calls                    14.7581713297
 POWELL| Reached  90% of maximal function calls                    14.7580615157
 POWELL| Reached  92% of maximal function calls                    14.7580615157
 POWELL| Reached  94% of maximal function calls                    14.7578822230
 POWELL| Reached  96% of maximal function calls                    14.7578822230
 POWELL| Reached  98% of maximal function calls                    14.7578822230
 POWELL| Reached 100% of maximal function calls                    14.7578403068
 POWELL| Reached 100% of maximal function calls                    14.7577589223
 POWELL| Exceeding maximum number of steps
 POWELL| Reached 100% of maximal function calls                    14.7577589223
 POWELL| RMS average of variables                                   0.0001088990
 POWELL| Start optimization   3 of total 100               rhobeg =   0.00038416
 POWELL| Inital value of function                                  14.7577589223
 POWELL| Reached   6% of maximal function calls                    14.7577589223
 POWELL| Reached   8% of maximal function calls                    14.7577589223
 POWELL| Reached  10% of maximal function calls                    14.7577589223
 POWELL| Reached  12% of maximal function calls                    14.7577589223
 POWELL| Reached  14% of maximal function calls                    14.7577589223
 POWELL| Reached  16% of maximal function calls                    14.7577589223
 POWELL| Reached  18% of maximal function calls                    14.7577589223
 POWELL| Reached  20% of maximal function calls                    14.7577589223
 POWELL| Reached  22% of maximal function calls                    14.7460491219
 POWELL| Reached  24% of maximal function calls                    14.7460491219
 POWELL| Reached  26% of maximal function calls                    14.7460491219
 POWELL| Reached  28% of maximal function calls                    14.7460491219
 POWELL| Reached  30% of maximal function calls                    14.7460491219
 POWELL| Reached  32% of maximal function calls                    14.7460491219
 POWELL| Reached  34% of maximal function calls                    14.7126757154
 POWELL| Reached  36% of maximal function calls                    14.7126757154
 POWELL| Reached  38% of maximal function calls                    14.7126757154
 POWELL| Reached  40% of maximal function calls                    14.7126757154
 POWELL| Reached  42% of maximal function calls                    14.7126757154
 POWELL| Reached  44% of maximal function calls                    14.7126757154
 POWELL| Reached  46% of maximal function calls                    14.7126757154
 POWELL| Reached  48% of maximal function calls                    14.7126757154
 POWELL| Reached  50% of maximal function calls                    14.7126757154
 POWELL| Reached  52% of maximal function calls                    14.7126757154
 POWELL| Reached  54% of maximal function calls                    14.7126757154
 POWELL| Reached  56% of maximal function calls                    14.7126757154
 POWELL| Reached  57% of maximal function calls                    14.7123528869
 POWELL| Reached  60% of maximal function calls                    14.7123528869
 POWELL| Reached  62% of maximal function calls                    14.7123528869
 POWELL| Reached  64% of maximal function calls                    14.7123528869
 POWELL| Reached  66% of maximal function calls                    14.7080416949
 POWELL| Reached  68% of maximal function calls                    14.7049478468
 POWELL| Reached  70% of maximal function calls                    14.7042926751
 POWELL| Reached  72% of maximal function calls                    14.7041584367
 POWELL| Reached  74% of maximal function calls                    14.7041584367
 POWELL| Reached  76% of maximal function calls                    14.7041584367
 POWELL| Reached  78% of maximal function calls                    14.7041260233
 POWELL| Reached  80% of maximal function calls                    14.7040469711
 POWELL| Reached  82% of maximal function calls                    14.7040469711
 POWELL| Reached  84% of maximal function calls                    14.7040469711
 POWELL| Reached  86% of maximal function calls                    14.7040469711
 POWELL| Reached  88% of maximal function calls                    14.7040469711
 POWELL| Reached  90% of maximal function calls                    14.7040469711
 POWELL| Reached  92% of maximal function calls                    14.7040469711
 POWELL| Reached  94% of maximal function calls                    14.7040469711
 POWELL| Reached  96% of maximal function calls                    14.7040469711
 POWELL| Reached  98% of maximal function calls                    14.7040453113
 POWELL| Reached 100% of maximal function calls                    14.7040453113
 POWELL| Reached 100% of maximal function calls                    14.7040396293
 POWELL| Exceeding maximum number of steps
 POWELL| Reached 100% of maximal function calls                    14.7040396293
 POWELL| RMS average of variables                                   0.0001180159
 POWELL| Start optimization   4 of total 100               rhobeg =   0.00037648
 POWELL| Inital value of function                                  14.7040396293
 POWELL| Reached   6% of maximal function calls                    14.7040396293
 POWELL| Reached   8% of maximal function calls                    14.7040396293
 POWELL| Reached  10% of maximal function calls                    14.7040396293
 POWELL| Reached  12% of maximal function calls                    14.7040396293
 POWELL| Reached  14% of maximal function calls                    14.7040396293
 POWELL| Reached  16% of maximal function calls                    14.7040396293
 POWELL| Reached  18% of maximal function calls                    14.7040396293
 POWELL| Reached  20% of maximal function calls                    14.7040396293
 POWELL| Reached  22% of maximal function calls                    14.7040396293
 POWELL| Reached  24% of maximal function calls                    14.7040396293
 POWELL| Reached  26% of maximal function calls                    14.7040396293
 POWELL| Reached  28% of maximal function calls                    14.7040396293
 POWELL| Reached  30% of maximal function calls                    14.7040396293
 POWELL| Reached  32% of maximal function calls                    14.7040396293
 POWELL| Reached  34% of maximal function calls                    14.7040396293
 POWELL| Reached  36% of maximal function calls                    14.7040396293
 POWELL| Reached  38% of maximal function calls                    14.7040396293
 POWELL| Reached  40% of maximal function calls                    14.7040396293
 POWELL| Reached  42% of maximal function calls                    14.7040396293
 POWELL| Reached  44% of maximal function calls                    14.7040396293
 POWELL| Reached  46% of maximal function calls                    14.7040396293
 POWELL| Reached  48% of maximal function calls                    14.7040396293
 POWELL| Reached  50% of maximal function calls                    14.7040396293
 POWELL| Reached  52% of maximal function calls                    14.7040396293
 POWELL| Reached  54% of maximal function calls                    14.7040396293
 POWELL| Reached  56% of maximal function calls                    14.7040396293
 POWELL| Reached  57% of maximal function calls                    14.7040396293
 POWELL| Reached  60% of maximal function calls                    14.7035860981
 POWELL| Reached  62% of maximal function calls                    14.7034881268
 POWELL| Reached  64% of maximal function calls                    14.7034881268
 POWELL| Reached  66% of maximal function calls                    14.7034881268
 POWELL| Reached  68% of maximal function calls                    14.6992366171
 POWELL| Reached  70% of maximal function calls                    14.6988410023
 POWELL| Reached  72% of maximal function calls                    14.6981600811
 POWELL| Reached  74% of maximal function calls                    14.6979925755
 POWELL| Reached  76% of maximal function calls                    14.6979925755
 POWELL| Reached  78% of maximal function calls                    14.6979925755
 POWELL| Reached  80% of maximal function calls                    14.6979632226
 POWELL| Reached  82% of maximal function calls                    14.6978887629
 POWELL| Reached  84% of maximal function calls                    14.6978887629
 POWELL| Reached  86% of maximal function calls                    14.6978887629
 POWELL| Reached  88% of maximal function calls                    14.6978887629
 POWELL| Reached  90% of maximal function calls                    14.6978063532
 POWELL| Reached  92% of maximal function calls                    14.6977948895
 POWELL| Reached  94% of maximal function calls                    14.6977841915
 POWELL| Reached  96% of maximal function calls                    14.6977832353
 POWELL| Reached  98% of maximal function calls                    14.6977832353
 POWELL| Reached 100% of maximal function calls                    14.6977832353
 POWELL| Reached 100% of maximal function calls                    14.6977448762
 POWELL| Exceeding maximum number of steps
 POWELL| Reached 100% of maximal function calls                    14.6977448762
 POWELL| RMS average of variables                                   0.0000209841
 POWELL| Start optimization   5 of total 100               rhobeg =   0.00036895
 POWELL| Inital value of function                                  14.6977448762
 POWELL| Reached   6% of maximal function calls                    14.6977448762
 POWELL| Reached   8% of maximal function calls                    14.6977448762
 POWELL| Reached  10% of maximal function calls                    14.6977448762
 POWELL| Reached  12% of maximal function calls                    14.6977448762
 POWELL| Reached  14% of maximal function calls                    14.6977448762
 POWELL| Reached  16% of maximal function calls                    14.6977448762
 POWELL| Reached  18% of maximal function calls                    14.6977448762
 POWELL| Reached  20% of maximal function calls                    14.6977448762
 POWELL| Reached  22% of maximal function calls                    14.6977448762
 POWELL| Reached  24% of maximal function calls                    14.6977448762
 POWELL| Reached  26% of maximal function calls                    14.6977448762
 POWELL| Reached  28% of maximal function calls                    14.6977448762
 POWELL| Reached  30% of maximal function calls                    14.6977448762
 POWELL| Reached  32% of maximal function calls                    14.6977448762
 POWELL| Reached  34% of maximal function calls                    14.6977448762
 POWELL| Reached  36% of maximal function calls                    14.6977448762
 POWELL| Reached  38% of maximal function calls                    14.6977448762
 POWELL| Reached  40% of maximal function calls                    14.6977448762
 POWELL| Reached  42% of maximal function calls                    14.6977448762
 POWELL| Reached  44% of maximal function calls                    14.6977448762
 POWELL| Reached  46% of maximal function calls                    14.6977448762
 POWELL| Reached  48% of maximal function calls                    14.6977448762
 POWELL| Reached  50% of maximal function calls                    14.6977448762
 POWELL| Reached  52% of maximal function calls                    14.6977448762
 POWELL| Reached  54% of maximal function calls                    14.6977448762
 POWELL| Reached  56% of maximal function calls                    14.6977448762
 POWELL| Reached  57% of maximal function calls                    14.6977448762
 POWELL| Reached  60% of maximal function calls                    14.6977448762
 POWELL| Reached  62% of maximal function calls                    14.6977448762
 POWELL| Reached  64% of maximal function calls                    14.6977448762
 POWELL| Reached  66% of maximal function calls                    14.6977448762
 POWELL| Reached  68% of maximal function calls                    14.6977448762
 POWELL| Reached  70% of maximal function calls                    14.6977448762
 POWELL| Reached  72% of maximal function calls                    14.6977448762
 POWELL| Reached  74% of maximal function calls                    14.6977448762
 POWELL| Reached  76% of maximal function calls                    14.6976029300
 POWELL| Reached  78% of maximal function calls                    14.6974613031
 POWELL| Reached  80% of maximal function calls                    14.6974613031
 POWELL| Reached  82% of maximal function calls                    14.6974613031
 POWELL| Reached  84% of maximal function calls                    14.6974613031
 POWELL| Reached  86% of maximal function calls                    14.6974613031
 POWELL| Reached  88% of maximal function calls                    14.6974613031
 POWELL| Reached  90% of maximal function calls                    14.6974613031
 POWELL| Reached  92% of maximal function calls                    14.6974530849
 POWELL| Reached  94% of maximal function calls                    14.6974530849
 POWELL| Reached  96% of maximal function calls                    14.6974443931
 POWELL| Reached  98% of maximal function calls                    14.6972974741
 POWELL| Reached 100% of maximal function calls                    14.6972927462
 POWELL| Reached 100% of maximal function calls                    14.6972927462
 POWELL| Exceeding maximum number of steps
 POWELL| Reached 100% of maximal function calls                    14.6972927462
 POWELL| RMS average of variables                                   0.0000002062
 POWELL| Start optimization   6 of total 100               rhobeg =   0.00036157
 POWELL| Inital value of function                                  14.6972927462
 POWELL| Reached   6% of maximal function calls                    14.6972927462
 POWELL| Reached   8% of maximal function calls                    14.6972927462
 POWELL| Reached  10% of maximal function calls                    14.6972927462
 POWELL| Reached  12% of maximal function calls                    14.6972927462
 POWELL| Reached  14% of maximal function calls                    14.6972927462
 POWELL| Reached  16% of maximal function calls                    14.6972927462
 POWELL| Reached  18% of maximal function calls                    14.6972927462
 POWELL| Reached  20% of maximal function calls                    14.6972927462
 POWELL| Reached  22% of maximal function calls                    14.6972927462
 POWELL| Reached  24% of maximal function calls                    14.6972927462
 POWELL| Reached  26% of maximal function calls                    14.6972927462
 POWELL| Reached  28% of maximal function calls                    14.6972927462
 POWELL| Reached  30% of maximal function calls                    14.6972927462
 POWELL| Reached  32% of maximal function calls                    14.6972927462
 POWELL| Reached  34% of maximal function calls                    14.6972927462
 POWELL| Reached  36% of maximal function calls                    14.6972927462
 POWELL| Reached  38% of maximal function calls                    14.6972927462
 POWELL| Reached  40% of maximal function calls                    14.6972927462
 POWELL| Reached  42% of maximal function calls                    14.6972927462
 POWELL| Reached  44% of maximal function calls                    14.6972927462
 POWELL| Reached  46% of maximal function calls                    14.6972927462
 POWELL| Reached  48% of maximal function calls                    14.6972927462
 POWELL| Reached  50% of maximal function calls                    14.6972927462
 POWELL| Reached  52% of maximal function calls                    14.6972927462
 POWELL| Reached  54% of maximal function calls                    14.6972927462
 POWELL| Reached  56% of maximal function calls                    14.6972927462
 POWELL| Reached  57% of maximal function calls                    14.6972927462
 POWELL| Reached  60% of maximal function calls                    14.6972927462
 POWELL| Reached  62% of maximal function calls                    14.6972927462
 POWELL| Reached  64% of maximal function calls                    14.6972927462
 POWELL| Reached  66% of maximal function calls                    14.6972927462
 POWELL| Reached  68% of maximal function calls                    14.6972927462
 POWELL| Reached  70% of maximal function calls                    14.6972927462
 POWELL| Reached  72% of maximal function calls                    14.6972927462
 POWELL| Reached  74% of maximal function calls                    14.6972927462
 POWELL| Reached  76% of maximal function calls                    14.6971541415
 POWELL| Reached  78% of maximal function calls                    14.6970159025
 POWELL| Reached  80% of maximal function calls                    14.6970159025
 POWELL| Reached  82% of maximal function calls                    14.6970159025
 POWELL| Reached  84% of maximal function calls                    14.6970159025
 POWELL| Reached  86% of maximal function calls                    14.6970159025
 POWELL| Reached  88% of maximal function calls                    14.6970159025
 POWELL| Reached  90% of maximal function calls                    14.6970159025
 POWELL| Reached  92% of maximal function calls                    14.6970077386
 POWELL| Reached  94% of maximal function calls                    14.6970077386
 POWELL| Reached  96% of maximal function calls                    14.6969991021
 POWELL| Reached  98% of maximal function calls                    14.6968550338
 POWELL| Reached 100% of maximal function calls                    14.6968504525
 POWELL| Reached 100% of maximal function calls                    14.6968504525
 POWELL| Exceeding maximum number of steps
 POWELL| Reached 100% of maximal function calls                    14.6968504525
 POWELL| RMS average of variables                                   0.0000002021
 POWELL| Start optimization   7 of total 100               rhobeg =   0.00035434
 POWELL| Inital value of function                                  14.6968504525
 POWELL| Reached   6% of maximal function calls                    14.6968504525
 POWELL| Reached   8% of maximal function calls                    14.6968504525
 POWELL| Reached  10% of maximal function calls                    14.6968504525
 POWELL| Reached  12% of maximal function calls                    14.6968504525
 POWELL| Reached  14% of maximal function calls                    14.6968504525
 POWELL| Reached  16% of maximal function calls                    14.6968504525
 POWELL| Reached  18% of maximal function calls                    14.6968504525
 POWELL| Reached  20% of maximal function calls                    14.6968504525
 POWELL| Reached  22% of maximal function calls                    14.6968504525
 POWELL| Reached  24% of maximal function calls                    14.6968504525
 POWELL| Reached  26% of maximal function calls                    14.6968504525
 POWELL| Reached  28% of maximal function calls                    14.6968504525
 POWELL| Reached  30% of maximal function calls                    14.6968504525
 POWELL| Reached  32% of maximal function calls                    14.6968504525
 POWELL| Reached  34% of maximal function calls                    14.6968504525
 POWELL| Reached  36% of maximal function calls                    14.6968504525
 POWELL| Reached  38% of maximal function calls                    14.6968504525
 POWELL| Reached  40% of maximal function calls                    14.6968504525
 POWELL| Reached  42% of maximal function calls                    14.6968504525
 POWELL| Reached  44% of maximal function calls                    14.6968504525
 POWELL| Reached  46% of maximal function calls                    14.6968504525
 POWELL| Reached  48% of maximal function calls                    14.6968504525
 POWELL| Reached  50% of maximal function calls                    14.6968504525
 POWELL| Reached  52% of maximal function calls                    14.6968504525
 POWELL| Reached  54% of maximal function calls                    14.6968504525
 POWELL| Reached  56% of maximal function calls                    14.6968504525
 POWELL| Reached  57% of maximal function calls                    14.6968504525
 POWELL| Reached  60% of maximal function calls                    14.6968504525
 POWELL| Reached  62% of maximal function calls                    14.6968504525
 POWELL| Reached  64% of maximal function calls                    14.6968504525
 POWELL| Reached  66% of maximal function calls                    14.6968504525
 POWELL| Reached  68% of maximal function calls                    14.6968504525
 POWELL| Reached  70% of maximal function calls                    14.6968504525
 POWELL| Reached  72% of maximal function calls                    14.6968504525
 POWELL| Reached  74% of maximal function calls                    14.6968504525
 POWELL| Reached  76% of maximal function calls                    14.6967150965
 POWELL| Reached  78% of maximal function calls                    14.6965802157
 POWELL| Reached  80% of maximal function calls                    14.6965802157
 POWELL| Reached  82% of maximal function calls                    14.6965802157
 POWELL| Reached  84% of maximal function calls                    14.6965802157
 POWELL| Reached  86% of maximal function calls                    14.6965802157
 POWELL| Reached  88% of maximal function calls                    14.6965802157
 POWELL| Reached  90% of maximal function calls                    14.6965802157
 POWELL| Reached  92% of maximal function calls                    14.6965721860
 POWELL| Reached  94% of maximal function calls                    14.6965721860
 POWELL| Reached  96% of maximal function calls                    14.6965636186
 POWELL| Reached  98% of maximal function calls                    14.6964221333
 POWELL| Reached 100% of maximal function calls                    14.6964175846
 POWELL| Reached 100% of maximal function calls                    14.6964175846
 POWELL| Exceeding maximum number of steps
 POWELL| Reached 100% of maximal function calls                    14.6964175846
 POWELL| RMS average of variables                                   0.0000001980
 POWELL| Start optimization   8 of total 100               rhobeg =   0.00034725
 POWELL| Inital value of function                                  14.6964175846
 POWELL| Reached   6% of maximal function calls                    14.6964175846
 POWELL| Reached   8% of maximal function calls                    14.6964175846
 POWELL| Reached  10% of maximal function calls                    14.6964175846
 POWELL| Reached  12% of maximal function calls                    14.6964175846
 POWELL| Reached  14% of maximal function calls                    14.6964175846
 POWELL| Reached  16% of maximal function calls                    14.6964175846
 POWELL| Reached  18% of maximal function calls                    14.6964175846
 POWELL| Reached  20% of maximal function calls                    14.6964175846
 POWELL| Reached  22% of maximal function calls                    14.6964175846
 POWELL| Reached  24% of maximal function calls                    14.6964175846
 POWELL| Reached  26% of maximal function calls                    14.6964175846
 POWELL| Reached  28% of maximal function calls                    14.6964175846
 POWELL| Reached  30% of maximal function calls                    14.6964175846
 POWELL| Reached  32% of maximal function calls                    14.6964175846
 POWELL| Reached  34% of maximal function calls                    14.6964175846
 POWELL| Reached  36% of maximal function calls                    14.6964175846
 POWELL| Reached  38% of maximal function calls                    14.6964175846
 POWELL| Reached  40% of maximal function calls                    14.6964175846
 POWELL| Reached  42% of maximal function calls                    14.6964175846
 POWELL| Reached  44% of maximal function calls                    14.6964175846
 POWELL| Reached  46% of maximal function calls                    14.6964175846
 POWELL| Reached  48% of maximal function calls                    14.6964175846
 POWELL| Reached  50% of maximal function calls                    14.6964175846
 POWELL| Reached  52% of maximal function calls                    14.6964175846
 POWELL| Reached  54% of maximal function calls                    14.6964175846
 POWELL| Reached  56% of maximal function calls                    14.6964175846
 POWELL| Reached  57% of maximal function calls                    14.6964175846
 POWELL| Reached  60% of maximal function calls                    14.6964175846
 POWELL| Reached  62% of maximal function calls                    14.6964175846
 POWELL| Reached  64% of maximal function calls                    14.6964175846
 POWELL| Reached  66% of maximal function calls                    14.6964175846
 POWELL| Reached  68% of maximal function calls                    14.6964175846
 POWELL| Reached  70% of maximal function calls                    14.6964175846
 POWELL| Reached  72% of maximal function calls                    14.6964175846
 POWELL| Reached  74% of maximal function calls                    14.6964175846
 POWELL| Reached  76% of maximal function calls                    14.6962854225
 POWELL| Reached  78% of maximal function calls                    14.6961537443
 POWELL| Reached  80% of maximal function calls                    14.6961537443
 POWELL| Reached  82% of maximal function calls                    14.6961537443
 POWELL| Reached  84% of maximal function calls                    14.6961537443
 POWELL| Reached  86% of maximal function calls                    14.6961537443
 POWELL| Reached  88% of maximal function calls                    14.6961537443
 POWELL| Reached  90% of maximal function calls                    14.6961537443
 POWELL| Reached  92% of maximal function calls                    14.6961457884
 POWELL| Reached  94% of maximal function calls                    14.6961457884
 POWELL| Reached  96% of maximal function calls                    14.6961374405
 POWELL| Reached  98% of maximal function calls                    14.6959984254
 POWELL| Reached 100% of maximal function calls                    14.6959940616
 POWELL| Reached 100% of maximal function calls                    14.6959940616
 POWELL| Exceeding maximum number of steps
 POWELL| Reached 100% of maximal function calls                    14.6959940616
 POWELL| RMS average of variables                                   0.0000001941
 POWELL| Start optimization   9 of total 100               rhobeg =   0.00034031
 POWELL| Inital value of function                                  14.6959940616
 POWELL| Reached   6% of maximal function calls                    14.6959940616
 POWELL| Reached   8% of maximal function calls                    14.6959940616
 POWELL| Reached  10% of maximal function calls                    14.6959940616
 POWELL| Reached  12% of maximal function calls                    14.6959940616
 POWELL| Reached  14% of maximal function calls                    14.6959940616
 POWELL| Reached  16% of maximal function calls                    14.6959940616
 POWELL| Reached  18% of maximal function calls                    14.6959940616
 POWELL| Reached  20% of maximal function calls                    14.6959940616
 POWELL| Reached  22% of maximal function calls                    14.6959940616
 POWELL| Reached  24% of maximal function calls                    14.6959940616
 POWELL| Reached  26% of maximal function calls                    14.6959940616
 POWELL| Reached  28% of maximal function calls                    14.6959940616
 POWELL| Reached  30% of maximal function calls                    14.6959940616
 POWELL| Reached  32% of maximal function calls                    14.6959940616
 POWELL| Reached  34% of maximal function calls                    14.6959940616
 POWELL| Reached  36% of maximal function calls                    14.6959940616
 POWELL| Reached  38% of maximal function calls                    14.6959940616
 POWELL| Reached  40% of maximal function calls                    14.6959940616
 POWELL| Reached  42% of maximal function calls                    14.6959940616
 POWELL| Reached  44% of maximal function calls                    14.6959940616
 POWELL| Reached  46% of maximal function calls                    14.6959940616
 POWELL| Reached  48% of maximal function calls                    14.6959940616
 POWELL| Reached  50% of maximal function calls                    14.6959940616
 POWELL| Reached  52% of maximal function calls                    14.6959940616
 POWELL| Reached  54% of maximal function calls                    14.6959940616
 POWELL| Reached  56% of maximal function calls                    14.6959940616
 POWELL| Reached  57% of maximal function calls                    14.6959940616
 POWELL| Reached  60% of maximal function calls                    14.6959940616
 POWELL| Reached  62% of maximal function calls                    14.6959940616
 POWELL| Reached  64% of maximal function calls                    14.6959940616
 POWELL| Reached  66% of maximal function calls                    14.6959940616
 POWELL| Reached  68% of maximal function calls                    14.6959940616
 POWELL| Reached  70% of maximal function calls                    14.6959940616
 POWELL| Reached  72% of maximal function calls                    14.6959940616
 POWELL| Reached  74% of maximal function calls                    14.6959940616
 POWELL| Reached  76% of maximal function calls                    14.6958649003
 POWELL| Reached  78% of maximal function calls                    14.6957361952
 POWELL| Reached  80% of maximal function calls                    14.6957361952
 POWELL| Reached  82% of maximal function calls                    14.6957361952
 POWELL| Reached  84% of maximal function calls                    14.6957361952
 POWELL| Reached  86% of maximal function calls                    14.6957361952
 POWELL| Reached  88% of maximal function calls                    14.6957361952
 POWELL| Reached  90% of maximal function calls                    14.6957361952
 POWELL| Reached  92% of maximal function calls                    14.6957284416
 POWELL| Reached  94% of maximal function calls                    14.6957284416
 POWELL| Reached  96% of maximal function calls                    14.6957201154
 POWELL| Reached  98% of maximal function calls                    14.6955838142
 POWELL| Reached 100% of maximal function calls                    14.6955794820
 POWELL| Reached 100% of maximal function calls                    14.6955794820
 POWELL| Exceeding maximum number of steps
 POWELL| Reached 100% of maximal function calls                    14.6955794820
 POWELL| RMS average of variables                                   0.0000001902
 POWELL| Start optimization  10 of total 100               rhobeg =   0.00033350
 POWELL| Inital value of function                                  14.6955794820
 POWELL| Reached   6% of maximal function calls                    14.6955794820
 POWELL| Reached   8% of maximal function calls                    14.6955794820
 POWELL| Reached  10% of maximal function calls                    14.6955794820
 POWELL| Reached  12% of maximal function calls                    14.6955794820
 POWELL| Reached  14% of maximal function calls                    14.6955794820
 POWELL| Reached  16% of maximal function calls                    14.6955794820
 POWELL| Reached  18% of maximal function calls                    14.6955794820
 POWELL| Reached  20% of maximal function calls                    14.6955794820
 POWELL| Reached  22% of maximal function calls                    14.6955794820
 POWELL| Reached  24% of maximal function calls                    14.6955794820
 POWELL| Reached  26% of maximal function calls                    14.6955794820
 POWELL| Reached  28% of maximal function calls                    14.6955794820
 POWELL| Reached  30% of maximal function calls                    14.6955794820
 POWELL| Reached  32% of maximal function calls                    14.6955794820
 POWELL| Reached  34% of maximal function calls                    14.6955794820
 POWELL| Reached  36% of maximal function calls                    14.6955794820
 POWELL| Reached  38% of maximal function calls                    14.6955794820
 POWELL| Reached  40% of maximal function calls                    14.6955794820
 POWELL| Reached  42% of maximal function calls                    14.6955794820
 POWELL| Reached  44% of maximal function calls                    14.6955794820
 POWELL| Reached  46% of maximal function calls                    14.6955794820
 POWELL| Reached  48% of maximal function calls                    14.6955794820
 POWELL| Reached  50% of maximal function calls                    14.6955794820
 POWELL| Reached  52% of maximal function calls                    14.6955794820
 POWELL| Reached  54% of maximal function calls                    14.6955794820
 POWELL| Reached  56% of maximal function calls                    14.6955794820
 POWELL| Reached  57% of maximal function calls                    14.6955794820
 POWELL| Reached  60% of maximal function calls                    14.6955794820
 POWELL| Reached  62% of maximal function calls                    14.6955794820
 POWELL| Reached  64% of maximal function calls                    14.6955794820
 POWELL| Reached  66% of maximal function calls                    14.6955794820
 POWELL| Reached  68% of maximal function calls                    14.6955794820
 POWELL| Reached  70% of maximal function calls                    14.6955794820
 POWELL| Reached  72% of maximal function calls                    14.6955794820
 POWELL| Reached  74% of maximal function calls                    14.6955794820
 POWELL| Reached  76% of maximal function calls                    14.6954533885
 POWELL| Reached  78% of maximal function calls                    14.6953276172
 POWELL| Reached  80% of maximal function calls                    14.6953276172
 POWELL| Reached  82% of maximal function calls                    14.6953276172
 POWELL| Reached  84% of maximal function calls                    14.6953276172
 POWELL| Reached  86% of maximal function calls                    14.6953276172
 POWELL| Reached  88% of maximal function calls                    14.6953276172
 POWELL| Reached  90% of maximal function calls                    14.6953276172
 POWELL| Reached  92% of maximal function calls                    14.6953200473
 POWELL| Reached  94% of maximal function calls                    14.6953200473
 POWELL| Reached  96% of maximal function calls                    14.6953118991
 POWELL| Reached  98% of maximal function calls                    14.6951781519
 POWELL| Reached 100% of maximal function calls                    14.6951740438
 POWELL| Reached 100% of maximal function calls                    14.6951740438
 POWELL| Exceeding maximum number of steps
 POWELL| Reached 100% of maximal function calls                    14.6951740438
 POWELL| RMS average of variables                                   0.0000001864
 POWELL| Start optimization  11 of total 100               rhobeg =   0.00032683
 POWELL| Inital value of function                                  14.6951740438
 POWELL| Reached   6% of maximal function calls                    14.6951740438
 POWELL| Reached   8% of maximal function calls                    14.6951740438
 POWELL| Reached  10% of maximal function calls                    14.6951740438
 POWELL| Reached  12% of maximal function calls                    14.6951740438
 POWELL| Reached  14% of maximal function calls                    14.6951740438
 POWELL| Reached  16% of maximal function calls                    14.6951740438
 POWELL| Reached  18% of maximal function calls                    14.6951740438
 POWELL| Reached  20% of maximal function calls                    14.6951740438
 POWELL| Reached  22% of maximal function calls                    14.6951740438
 POWELL| Reached  24% of maximal function calls                    14.6951740438
 POWELL| Reached  26% of maximal function calls                    14.6951740438
 POWELL| Reached  28% of maximal function calls                    14.6951740438
 POWELL| Reached  30% of maximal function calls                    14.6951740438
 POWELL| Reached  32% of maximal function calls                    14.6951740438
 POWELL| Reached  34% of maximal function calls                    14.6951740438
 POWELL| Reached  36% of maximal function calls                    14.6951740438
 POWELL| Reached  38% of maximal function calls                    14.6951740438
 POWELL| Reached  40% of maximal function calls                    14.6951740438
 POWELL| Reached  42% of maximal function calls                    14.6951740438
 POWELL| Reached  44% of maximal function calls                    14.6951740438
 POWELL| Reached  46% of maximal function calls                    14.6951740438
 POWELL| Reached  48% of maximal function calls                    14.6951740438
 POWELL| Reached  50% of maximal function calls                    14.6951740438
 POWELL| Reached  52% of maximal function calls                    14.6951740438
 POWELL| Reached  54% of maximal function calls                    14.6951740438
 POWELL| Reached  56% of maximal function calls                    14.6951740438
 POWELL| Reached  57% of maximal function calls                    14.6951740438
 POWELL| Reached  60% of maximal function calls                    14.6951740438
 POWELL| Reached  62% of maximal function calls                    14.6951740438
 POWELL| Reached  64% of maximal function calls                    14.6951740438
 POWELL| Reached  66% of maximal function calls                    14.6951740438
 POWELL| Reached  68% of maximal function calls                    14.6951740438
 POWELL| Reached  70% of maximal function calls                    14.6951740438
 POWELL| Reached  72% of maximal function calls                    14.6951740438
 POWELL| Reached  74% of maximal function calls                    14.6951740438
 POWELL| Reached  76% of maximal function calls                    14.6950508249
 POWELL| Reached  78% of maximal function calls                    14.6949279374
 POWELL| Reached  80% of maximal function calls                    14.6949279374
 POWELL| Reached  82% of maximal function calls                    14.6949279374
 POWELL| Reached  84% of maximal function calls                    14.6949279374
 POWELL| Reached  86% of maximal function calls                    14.6949279374
 POWELL| Reached  88% of maximal function calls                    14.6949279374
 POWELL| Reached  90% of maximal function calls                    14.6949279374
 POWELL| Reached  92% of maximal function calls                    14.6949204168
 POWELL| Reached  94% of maximal function calls                    14.6949204168
 POWELL| Reached  96% of maximal function calls                    14.6949124625
 POWELL| Reached  98% of maximal function calls                    14.6947812276
 POWELL| Reached 100% of maximal function calls                    14.6947771177
 POWELL| Reached 100% of maximal function calls                    14.6947771177
 POWELL| Exceeding maximum number of steps
 POWELL| Reached 100% of maximal function calls                    14.6947771177
 POWELL| RMS average of variables                                   0.0000001827
 POWELL| Start optimization  12 of total 100               rhobeg =   0.00032029
 POWELL| Inital value of function                                  14.6947771177
 POWELL| Reached   6% of maximal function calls                    14.6947771177
 POWELL| Reached   8% of maximal function calls                    14.6947771177
 POWELL| Reached  10% of maximal function calls                    14.6947771177
 POWELL| Reached  12% of maximal function calls                    14.6947771177
 POWELL| Reached  14% of maximal function calls                    14.6947771177
 POWELL| Reached  16% of maximal function calls                    14.6947771177
 POWELL| Reached  18% of maximal function calls                    14.6947771177
 POWELL| Reached  20% of maximal function calls                    14.6947771177
 POWELL| Reached  22% of maximal function calls                    14.6947771177
 POWELL| Reached  24% of maximal function calls                    14.6947771177
 POWELL| Reached  26% of maximal function calls                    14.6947771177
 POWELL| Reached  28% of maximal function calls                    14.6947771177
 POWELL| Reached  30% of maximal function calls                    14.6947771177
 POWELL| Reached  32% of maximal function calls                    14.6947771177
 POWELL| Reached  34% of maximal function calls                    14.6947771177
 POWELL| Reached  36% of maximal function calls                    14.6947771177
 POWELL| Reached  38% of maximal function calls                    14.6947771177
 POWELL| Reached  40% of maximal function calls                    14.6947771177
 POWELL| Reached  42% of maximal function calls                    14.6947771177
 POWELL| Reached  44% of maximal function calls                    14.6947771177
 POWELL| Reached  46% of maximal function calls                    14.6947771177
 POWELL| Reached  48% of maximal function calls                    14.6947771177
 POWELL| Reached  50% of maximal function calls                    14.6947771177
 POWELL| Reached  52% of maximal function calls                    14.6947771177
 POWELL| Reached  54% of maximal function calls                    14.6947771177
 POWELL| Reached  56% of maximal function calls                    14.6947771177
 POWELL| Reached  57% of maximal function calls                    14.6947771177
 POWELL| Reached  60% of maximal function calls                    14.6947771177
 POWELL| Reached  62% of maximal function calls                    14.6947771177
 POWELL| Reached  64% of maximal function calls                    14.6947771177
 POWELL| Reached  66% of maximal function calls                    14.6947771177
 POWELL| Reached  68% of maximal function calls                    14.6947771177
 POWELL| Reached  70% of maximal function calls                    14.6947771177
 POWELL| Reached  72% of maximal function calls                    14.6947771177
 POWELL| Reached  74% of maximal function calls                    14.6947771177
 POWELL| Reached  76% of maximal function calls                    14.6946567546
 POWELL| Reached  78% of maximal function calls                    14.6945367636
 POWELL| Reached  80% of maximal function calls                    14.6945367636
 POWELL| Reached  82% of maximal function calls                    14.6945367636
 POWELL| Reached  84% of maximal function calls                    14.6945367636
 POWELL| Reached  86% of maximal function calls                    14.6945367636
 POWELL| Reached  88% of maximal function calls                    14.6945367636
 POWELL| Reached  90% of maximal function calls                    14.6945367636
 POWELL| Reached  92% of maximal function calls                    14.6945294093
 POWELL| Reached  94% of maximal function calls                    14.6945294093
 POWELL| Reached  96% of maximal function calls                    14.6945216662
 POWELL| Reached  98% of maximal function calls                    14.6943929619
 POWELL| Reached 100% of maximal function calls                    14.6943888720
 POWELL| Reached 100% of maximal function calls                    14.6943888720
 POWELL| Exceeding maximum number of steps
 POWELL| Reached 100% of maximal function calls                    14.6943888720
 POWELL| RMS average of variables                                   0.0000001790
 POWELL| Start optimization  13 of total 100               rhobeg =   0.00031389
 POWELL| Inital value of function                                  14.6943888720
 POWELL| Reached   6% of maximal function calls                    14.6943888720
 POWELL| Reached   8% of maximal function calls                    14.6943888720
 POWELL| Reached  10% of maximal function calls                    14.6943888720
 POWELL| Reached  12% of maximal function calls                    14.6943888720
 POWELL| Reached  14% of maximal function calls                    14.6914258796
 POWELL| Reached  16% of maximal function calls                    14.6914258796
 POWELL| Reached  18% of maximal function calls                    14.6914258796
 POWELL| Reached  20% of maximal function calls                    14.6914258796
 POWELL| Reached  22% of maximal function calls                    14.6914258796
 POWELL| Reached  24% of maximal function calls                    14.6914258796
 POWELL| Reached  26% of maximal function calls                    14.6914258796
 POWELL| Reached  28% of maximal function calls                    14.6914258796
 POWELL| Reached  30% of maximal function calls                    14.6914258796
 POWELL| Reached  32% of maximal function calls                    14.6914258796
 POWELL| Reached  34% of maximal function calls                    14.6914258796
 POWELL| Reached  36% of maximal function calls                    14.6914258796
 POWELL| Reached  38% of maximal function calls                    14.6914258796
 POWELL| Reached  40% of maximal function calls                    14.6914258796
 POWELL| Reached  42% of maximal function calls                    14.6914258796
 POWELL| Reached  44% of maximal function calls                    14.6914258796
 POWELL| Reached  46% of maximal function calls                    14.6914258796
 POWELL| Reached  48% of maximal function calls                    14.6914258796
 POWELL| Reached  50% of maximal function calls                    14.6914258796
 POWELL| Reached  52% of maximal function calls                    14.6914258796
 POWELL| Reached  54% of maximal function calls                    14.6914258796
 POWELL| Reached  56% of maximal function calls                    14.6914258796
 POWELL| Reached  57% of maximal function calls                    14.6914258796
 POWELL| Reached  60% of maximal function calls                    14.6914258796
 POWELL| Reached  62% of maximal function calls                    14.6914258796
 POWELL| Reached  64% of maximal function calls                    14.6914258796
 POWELL| Reached  66% of maximal function calls                    14.6914258796
 POWELL| Reached  68% of maximal function calls                    14.6339018684
 POWELL| Reached  70% of maximal function calls                    14.6320786752
 POWELL| Reached  72% of maximal function calls                    14.6320786752
 POWELL| Reached  74% of maximal function calls                    14.6320786752
 POWELL| Reached  76% of maximal function calls                    14.6320786752
 POWELL| Reached  78% of maximal function calls                    14.6319624257
 POWELL| Reached  80% of maximal function calls                    14.6306705614
 POWELL| Reached  82% of maximal function calls                    14.6303337336
 POWELL| Reached  84% of maximal function calls                    14.6303337336
 POWELL| Reached  86% of maximal function calls                    14.6303337336
 POWELL| Reached  88% of maximal function calls                    14.6303337336
 POWELL| Reached  90% of maximal function calls                    14.6291691583
 POWELL| Reached  92% of maximal function calls                    14.6291691583
 POWELL| Reached  94% of maximal function calls                    14.6291042464
 POWELL| Reached  96% of maximal function calls                    14.6268152987
 POWELL| Reached  98% of maximal function calls                    14.6268083118
 POWELL| Reached 100% of maximal function calls                    14.6261529904
 POWELL| Reached 100% of maximal function calls                    14.6261529904
 POWELL| Exceeding maximum number of steps
 POWELL| Reached 100% of maximal function calls                    14.6261529904
 POWELL| RMS average of variables                                   0.0000871635
 POWELL| Start optimization  14 of total 100               rhobeg =   0.00030761
 POWELL| Inital value of function                                  14.6261529904
 POWELL| Reached   6% of maximal function calls                    14.6261529904
 POWELL| Reached   8% of maximal function calls                    14.6261529904
 POWELL| Reached  10% of maximal function calls                    14.6261529904
 POWELL| Reached  12% of maximal function calls                    14.6261529904
 POWELL| Reached  14% of maximal function calls                    14.6261529904
 POWELL| Reached  16% of maximal function calls                    14.6261529904
 POWELL| Reached  18% of maximal function calls                    14.6261529904
 POWELL| Reached  20% of maximal function calls                    14.6261529904
 POWELL| Reached  22% of maximal function calls                    14.6261529904
 POWELL| Reached  24% of maximal function calls                    14.5931044692
 POWELL| Reached  26% of maximal function calls                    14.5931044692
 POWELL| Reached  28% of maximal function calls                    14.5931044692
 POWELL| Reached  30% of maximal function calls                    14.5931044692
 POWELL| Reached  32% of maximal function calls                    14.5931044692
 POWELL| Reached  34% of maximal function calls                    14.5931044692
 POWELL| Reached  36% of maximal function calls                    14.5931044692
 POWELL| Reached  38% of maximal function calls                    14.5931044692
 POWELL| Reached  40% of maximal function calls                    14.5931044692
 POWELL| Reached  42% of maximal function calls                    14.5931044692
 POWELL| Reached  44% of maximal function calls                    14.5931044692
 POWELL| Reached  46% of maximal function calls                    14.5931044692
 POWELL| Reached  48% of maximal function calls                    14.5931044692
 POWELL| Reached  50% of maximal function calls                    14.5931044692
 POWELL| Reached  52% of maximal function calls                    14.5931044692
 POWELL| Reached  54% of maximal function calls                    14.5931044692
 POWELL| Reached  56% of maximal function calls                    14.5931044692
 POWELL| Reached  57% of maximal function calls                    14.5931044692
 POWELL| Reached  60% of maximal function calls                    14.5553415052
 POWELL| Reached  62% of maximal function calls                    14.5553415052
 POWELL| Reached  64% of maximal function calls                    14.5553415052
 POWELL| Reached  66% of maximal function calls                    14.5553415052
 POWELL| Reached  68% of maximal function calls                    14.5553415052
 POWELL| Reached  70% of maximal function calls                    14.5553415052
 POWELL| Reached  72% of maximal function calls                    14.5523393284
 POWELL| Reached  74% of maximal function calls                    14.5503156177
 POWELL| Reached  76% of maximal function calls                    14.5503146387
 POWELL| Reached  78% of maximal function calls                    14.5503099679
 POWELL| Reached  80% of maximal function calls                    14.5501906729
 POWELL| Reached  82% of maximal function calls                    14.5501906729
 POWELL| Reached  84% of maximal function calls                    14.5501906729
 POWELL| Reached  86% of maximal function calls                    14.5501878499
 POWELL| Reached  88% of maximal function calls                    14.5501878499
 POWELL| Reached  90% of maximal function calls                    14.5501878499
 POWELL| Reached  92% of maximal function calls                    14.5501878499
 POWELL| Reached  94% of maximal function calls                    14.5501868673
 POWELL| Reached  96% of maximal function calls                    14.5501868673
 POWELL| Reached  98% of maximal function calls                    14.5501868673
 POWELL| Reached 100% of maximal function calls                    14.5501868673
 POWELL| Reached 100% of maximal function calls                    14.5501616393
 POWELL| Exceeding maximum number of steps
 POWELL| Reached 100% of maximal function calls                    14.5501616393
 POWELL| RMS average of variables                                   0.0000857974
 POWELL| Start optimization  15 of total 100               rhobeg =   0.00030146
 POWELL| Inital value of function                                  14.5501616393
 POWELL| Reached   6% of maximal function calls                    14.5501616393
 POWELL| Reached   8% of maximal function calls                    14.5501616393
 POWELL| Reached  10% of maximal function calls                    14.5501616393
 POWELL| Reached  12% of maximal function calls                    14.5501616393
 POWELL| Reached  14% of maximal function calls                    14.5501616393
 POWELL| Reached  16% of maximal function calls                    14.5501616393
 POWELL| Reached  18% of maximal function calls                    14.5501616393
 POWELL| Reached  20% of maximal function calls                    14.5501616393
 POWELL| Reached  22% of maximal function calls                    14.5501616393
 POWELL| Reached  24% of maximal function calls                    14.5501616393
 POWELL| Reached  26% of maximal function calls                    14.5501616393
 POWELL| Reached  28% of maximal function calls                    14.5501616393
 POWELL| Reached  30% of maximal function calls                    14.5501616393
 POWELL| Reached  32% of maximal function calls                    14.5501616393
 POWELL| Reached  34% of maximal function calls                    14.5501616393
 POWELL| Reached  36% of maximal function calls                    14.5501616393
 POWELL| Reached  38% of maximal function calls                    14.5501616393
 POWELL| Reached  40% of maximal function calls                    14.5501616393
 POWELL| Reached  42% of maximal function calls                    14.5501616393
 POWELL| Reached  44% of maximal function calls                    14.5501616393
 POWELL| Reached  46% of maximal function calls                    14.5501616393
 POWELL| Reached  48% of maximal function calls                    14.5501616393
 POWELL| Reached  50% of maximal function calls                    14.5501616393
 POWELL| Reached  52% of maximal function calls                    14.5501616393
 POWELL| Reached  54% of maximal function calls                    14.5501616393
 POWELL| Reached  56% of maximal function calls                    14.5501616393
 POWELL| Reached  57% of maximal function calls                    14.5501616393
 POWELL| Reached  60% of maximal function calls                    14.5501616393
 POWELL| Reached  62% of maximal function calls                    14.5501616393
 POWELL| Reached  64% of maximal function calls                    14.5501616393
 POWELL| Reached  66% of maximal function calls                    14.5501616393
 POWELL| Reached  68% of maximal function calls                    14.5416980547
 POWELL| Reached  70% of maximal function calls                    14.5416980547
 POWELL| Reached  72% of maximal function calls                    14.5416980547
 POWELL| Reached  74% of maximal function calls                    14.5414764005
 POWELL| Reached  76% of maximal function calls                    14.5414764005
 POWELL| Reached  78% of maximal function calls                    14.5409876366
 POWELL| Reached  80% of maximal function calls                    14.5409876366
 POWELL| Reached  82% of maximal function calls                    14.5409876366
 POWELL| Reached  84% of maximal function calls                    14.5409876366
 POWELL| Reached  86% of maximal function calls                    14.5409876366
 POWELL| Reached  88% of maximal function calls                    14.5409876366
 POWELL| Reached  90% of maximal function calls                    14.5409876366
 POWELL| Reached  92% of maximal function calls                    14.5409666241
 POWELL| Reached  94% of maximal function calls                    14.5409666241
 POWELL| Reached  96% of maximal function calls                    14.5409396506
 POWELL| Reached  98% of maximal function calls                    14.5394171816
 POWELL| Reached 100% of maximal function calls                    14.5394171816
 POWELL| Reached 100% of maximal function calls                    14.5394171816
 POWELL| Exceeding maximum number of steps
 POWELL| Reached 100% of maximal function calls                    14.5394171816
 POWELL| RMS average of variables                                   0.0000007861
 POWELL| Start optimization  16 of total 100               rhobeg =   0.00029543
 POWELL| Inital value of function                                  14.5394171816
 POWELL| Reached   6% of maximal function calls                    14.5394171816
 POWELL| Reached   8% of maximal function calls                    14.5379440873
 POWELL| Reached  10% of maximal function calls                    14.5379440873
 POWELL| Reached  12% of maximal function calls                    14.5379440873
 POWELL| Reached  14% of maximal function calls                    14.5379440873
 POWELL| Reached  16% of maximal function calls                    14.5379440873
 POWELL| Reached  18% of maximal function calls                    14.5379440873
 POWELL| Reached  20% of maximal function calls                    14.5379440873
 POWELL| Reached  22% of maximal function calls                    14.5379440873
 POWELL| Reached  24% of maximal function calls                    14.5379440873
 POWELL| Reached  26% of maximal function calls                    14.5379440873
 POWELL| Reached  28% of maximal function calls                    14.5379440873
 POWELL| Reached  30% of maximal function calls                    14.5379440873
 POWELL| Reached  32% of maximal function calls                    14.5379440873
 POWELL| Reached  34% of maximal function calls                    14.5379440873
 POWELL| Reached  36% of maximal function calls                    14.5379440873
 POWELL| Reached  38% of maximal function calls                    14.5379440873
 POWELL| Reached  40% of maximal function calls                    14.5379440873
 POWELL| Reached  42% of maximal function calls                    14.5379440873
 POWELL| Reached  44% of maximal function calls                    14.5083778993
 POWELL| Reached  46% of maximal function calls                    14.5083778993
 POWELL| Reached  48% of maximal function calls                    14.5083778993
 POWELL| Reached  50% of maximal function calls                    14.5083778993
 POWELL| Reached  52% of maximal function calls                    14.5083778993
 POWELL| Reached  54% of maximal function calls                    14.5083778993
[...]
 POWELL| RMS average of variables                                   0.0000175730
 POWELL| Start optimization  98 of total 100               rhobeg =   0.00005636
 POWELL| Inital value of function                                   7.5121038236
 POWELL| Reached   6% of maximal function calls                     7.5121038236
 POWELL| Reached   8% of maximal function calls                     7.5121038236
 POWELL| Reached  10% of maximal function calls                     7.5121038236
 POWELL| Reached  12% of maximal function calls                     7.5121038236
 POWELL| Reached  14% of maximal function calls                     7.4883844761
 POWELL| Reached  16% of maximal function calls                     7.4883844761
 POWELL| Reached  18% of maximal function calls                     7.4883844761
 POWELL| Reached  20% of maximal function calls                     7.4883844761
 POWELL| Reached  22% of maximal function calls                     7.4809365652
 POWELL| Reached  24% of maximal function calls                     7.4809365652
 POWELL| Reached  26% of maximal function calls                     7.4809365652
 POWELL| Reached  28% of maximal function calls                     7.4809365652
 POWELL| Reached  30% of maximal function calls                     7.4809365652
 POWELL| Reached  32% of maximal function calls                     7.4809365652
 POWELL| Reached  34% of maximal function calls                     7.4809365652
 POWELL| Reached  36% of maximal function calls                     7.4809365652
 POWELL| Reached  38% of maximal function calls                     7.4809365652
 POWELL| Reached  40% of maximal function calls                     7.4809365652
 POWELL| Reached  42% of maximal function calls                     7.4809365652
 POWELL| Reached  44% of maximal function calls                     7.4809365652
 POWELL| Reached  46% of maximal function calls                     7.4809365652
 POWELL| Reached  48% of maximal function calls                     7.4809365652
 POWELL| Reached  50% of maximal function calls                     7.4809365652
 POWELL| Reached  52% of maximal function calls                     7.4809365652
 POWELL| Reached  54% of maximal function calls                     7.4809365652
 POWELL| Reached  56% of maximal function calls                     7.4809365652
 POWELL| Reached  57% of maximal function calls                     7.4784522801
 POWELL| Reached  60% of maximal function calls                     7.4784522801
 POWELL| Reached  62% of maximal function calls                     7.4784522801
 POWELL| Reached  64% of maximal function calls                     7.4784522801
 POWELL| Reached  66% of maximal function calls                     7.4784522801
 POWELL| Reached  68% of maximal function calls                     7.4780820993
 POWELL| Reached  70% of maximal function calls                     7.4780428295
 POWELL| Reached  72% of maximal function calls                     7.4778369376
 POWELL| Reached  74% of maximal function calls                     7.4776787554
 POWELL| Reached  76% of maximal function calls                     7.4776760423
 POWELL| Reached  78% of maximal function calls                     7.4776760423
 POWELL| Reached  80% of maximal function calls                     7.4776760423
 POWELL| Reached  82% of maximal function calls                     7.4776690669
 POWELL| Reached  84% of maximal function calls                     7.4776594345
 POWELL| Reached  86% of maximal function calls                     7.4776594345
 POWELL| Reached  88% of maximal function calls                     7.4776594345
 POWELL| Reached  90% of maximal function calls                     7.4776594345
 POWELL| Reached  92% of maximal function calls                     7.4776594345
 POWELL| Reached  94% of maximal function calls                     7.4776383295
 POWELL| Reached  96% of maximal function calls                     7.4776153316
 POWELL| Reached  98% of maximal function calls                     7.4775689798
 POWELL| Reached 100% of maximal function calls                     7.4774626187
 POWELL| Reached 100% of maximal function calls                     7.4772518754
 POWELL| Exceeding maximum number of steps
 POWELL| Reached 100% of maximal function calls                     7.4772518754
 POWELL| RMS average of variables                                   0.0000172233
 POWELL| Start optimization  99 of total 100               rhobeg =   0.00005524
 POWELL| Inital value of function                                   7.4772518754
 POWELL| Reached   6% of maximal function calls                     7.4772518754
 POWELL| Reached   8% of maximal function calls                     7.4772518754
 POWELL| Reached  10% of maximal function calls                     7.4772518754
 POWELL| Reached  12% of maximal function calls                     7.4772518754
 POWELL| Reached  14% of maximal function calls                     7.4498336804
 POWELL| Reached  16% of maximal function calls                     7.4498336804
 POWELL| Reached  18% of maximal function calls                     7.4498336804
 POWELL| Reached  20% of maximal function calls                     7.4498336804
 POWELL| Reached  22% of maximal function calls                     7.4498336804
 POWELL| Reached  24% of maximal function calls                     7.4498336804
 POWELL| Reached  26% of maximal function calls                     7.4498336804
 POWELL| Reached  28% of maximal function calls                     7.4498336804
 POWELL| Reached  30% of maximal function calls                     7.4498336804
 POWELL| Reached  32% of maximal function calls                     7.4498336804
 POWELL| Reached  34% of maximal function calls                     7.4498336804
 POWELL| Reached  36% of maximal function calls                     7.4498336804
 POWELL| Reached  38% of maximal function calls                     7.4281281952
 POWELL| Reached  40% of maximal function calls                     7.4281281952
 POWELL| Reached  42% of maximal function calls                     7.4281281952
 POWELL| Reached  44% of maximal function calls                     7.4281281952
 POWELL| Reached  46% of maximal function calls                     7.4281281952
 POWELL| Reached  48% of maximal function calls                     7.4281281952
 POWELL| Reached  50% of maximal function calls                     7.4281281952
 POWELL| Reached  52% of maximal function calls                     7.4281281952
 POWELL| Reached  54% of maximal function calls                     7.4281281952
 POWELL| Reached  56% of maximal function calls                     7.4281281952
 POWELL| Reached  57% of maximal function calls                     7.4281281952
 POWELL| Reached  60% of maximal function calls                     7.4281281952
 POWELL| Reached  62% of maximal function calls                     7.4281281952
 POWELL| Reached  64% of maximal function calls                     7.4281281952
 POWELL| Reached  66% of maximal function calls                     7.4279240237
 POWELL| Reached  68% of maximal function calls                     7.4279240237
 POWELL| Reached  70% of maximal function calls                     7.4264323274
 POWELL| Reached  72% of maximal function calls                     7.4253586583
 POWELL| Reached  74% of maximal function calls                     7.4253409214
 POWELL| Reached  76% of maximal function calls                     7.4253409214
 POWELL| Reached  78% of maximal function calls                     7.4253409214
 POWELL| Reached  80% of maximal function calls                     7.4253409214
 POWELL| Reached  82% of maximal function calls                     7.4253391135
 POWELL| Reached  84% of maximal function calls                     7.4253391135
 POWELL| Reached  86% of maximal function calls                     7.4253292946
 POWELL| Reached  88% of maximal function calls                     7.4253041714
 POWELL| Reached  90% of maximal function calls                     7.4252698789
 POWELL| Reached  92% of maximal function calls                     7.4252646571
 POWELL| Reached  94% of maximal function calls                     7.4252646571
 POWELL| Reached  96% of maximal function calls                     7.4252646571
 POWELL| Reached  98% of maximal function calls                     7.4252646571
 POWELL| Reached 100% of maximal function calls                     7.4251993055
 POWELL| Reached 100% of maximal function calls                     7.4251957485
 POWELL| Exceeding maximum number of steps
 POWELL| Reached 100% of maximal function calls                     7.4251957485
 POWELL| RMS average of variables                                   0.0000153291
 POWELL| Start optimization 100 of total 100               rhobeg =   0.00005413
 POWELL| Inital value of function                                   7.4251957485
 POWELL| Reached   6% of maximal function calls                     7.4251957485
 POWELL| Reached   8% of maximal function calls                     7.4251957485
 POWELL| Reached  10% of maximal function calls                     7.4251957485
 POWELL| Reached  12% of maximal function calls                     7.4251957485
 POWELL| Reached  14% of maximal function calls                     7.4139185517
 POWELL| Reached  16% of maximal function calls                     7.4139185517
 POWELL| Reached  18% of maximal function calls                     7.4087317054
 POWELL| Reached  20% of maximal function calls                     7.4087317054
 POWELL| Reached  22% of maximal function calls                     7.3701842263
 POWELL| Reached  24% of maximal function calls                     7.3701842263
 POWELL| Reached  26% of maximal function calls                     7.3701842263
 POWELL| Reached  28% of maximal function calls                     7.3701842263
 POWELL| Reached  30% of maximal function calls                     7.3701842263
 POWELL| Reached  32% of maximal function calls                     7.3701842263
 POWELL| Reached  34% of maximal function calls                     7.3701842263
 POWELL| Reached  36% of maximal function calls                     7.3701842263
 POWELL| Reached  38% of maximal function calls                     7.3701842263
 POWELL| Reached  40% of maximal function calls                     7.3701842263
 POWELL| Reached  42% of maximal function calls                     7.3701842263
 POWELL| Reached  44% of maximal function calls                     7.3701842263
 POWELL| Reached  46% of maximal function calls                     7.3701842263
 POWELL| Reached  48% of maximal function calls                     7.3701842263
 POWELL| Reached  50% of maximal function calls                     7.3701842263
 POWELL| Reached  52% of maximal function calls                     7.3701842263
 POWELL| Reached  54% of maximal function calls                     7.3701842263
 POWELL| Reached  56% of maximal function calls                     7.3701842263
 POWELL| Reached  57% of maximal function calls                     7.3652663144
 POWELL| Reached  60% of maximal function calls                     7.3652663144
 POWELL| Reached  62% of maximal function calls                     7.3652663144
 POWELL| Reached  64% of maximal function calls                     7.3652663144
 POWELL| Reached  66% of maximal function calls                     7.3652663144
 POWELL| Reached  68% of maximal function calls                     7.3650309207
 POWELL| Reached  70% of maximal function calls                     7.3649770605
 POWELL| Reached  72% of maximal function calls                     7.3638420843
 POWELL| Reached  74% of maximal function calls                     7.3629951049
 POWELL| Reached  76% of maximal function calls                     7.3629939183
 POWELL| Reached  78% of maximal function calls                     7.3629895713
 POWELL| Reached  80% of maximal function calls                     7.3625547185
 POWELL| Reached  82% of maximal function calls                     7.3625547185
 POWELL| Reached  84% of maximal function calls                     7.3625547185
 POWELL| Reached  86% of maximal function calls                     7.3625547185
 POWELL| Reached  88% of maximal function calls                     7.3625534080
 POWELL| Reached  90% of maximal function calls                     7.3625534080
 POWELL| Reached  92% of maximal function calls                     7.3625534080
 POWELL| Reached  94% of maximal function calls                     7.3625534080
 POWELL| Reached  96% of maximal function calls                     7.3625503651
 POWELL| Reached  98% of maximal function calls                     7.3625503651
 POWELL| Reached 100% of maximal function calls                     7.3625240230
 POWELL| Reached 100% of maximal function calls                     7.3625049734
 POWELL| Exceeding maximum number of steps
 POWELL| Reached 100% of maximal function calls                     7.3625049734
 POWELL| RMS average of variables                                   0.0000165414
 POWELL| Number of function evaluations                                       50
 POWELL| Final value of function                                    7.3625049734

 POWELL| Final errors of target values

 Reference configuration          1               Method number                1
    L    N    Occupation      Eigenvalue [eV]           dE [eV]          dCharge 
    0    1          2.00       -93.9639103706 SC  -0.015864[10]     0.000001[ X]
    0    2          2.00        -5.2833060661 VA   0.002542[79]     0.000991[ 0]
    0    3          0.00         0.8990070465 U1  -0.001668[ X]     0.000351[ X]
    0    4          0.00         6.2938401741 U2  -0.006985[ X]     0.000649[ 0]
    1    1          6.00       -59.9862466548 SC   0.009092[ 2]     0.000022[ X]
    1    2          0.00        -1.2720036273 U1   0.009985[ 2]    -0.000937[ X]
    1    3          0.00         2.6190282431 U2   0.007377[ X]    -0.000253[ 0]
    2    1          6.00        -7.5014015646 VA   0.000969[ 7]     0.000361[ 0]
    2    2          0.00         1.9491043890 U1   0.001419[ X]    -0.000150[ X]
    2    3          0.00         6.5531176989 U2   0.006818[ X]    -0.001090[ 0]
    3    1          0.00         3.9422057098 U1   0.000618[ X]    -0.000007[ X]
    s-states N=    1                   Wavefunction at r=0:         0.030018[ 0]
    s-states N=    2                   Wavefunction at r=0:         0.196753[ 0]
    s-states N=    3                   Wavefunction at r=0:         0.105883[ 0]
    s-states N=    4                   Wavefunction at r=0:         0.156536[ 0]

 Number of target values reached:                                      12 of  19



                             NORMAL TERMINATION OF     
                                                       
                           ****  ******  ****   ****   
                          **  ** ****** **  ** ******  
                          ******   **   **  ** **  **  
                          **  **   **    ****  **  **  


 -------------------------------------------------------------------------------
 -                                                                             -
 -                                DBCSR STATISTICS                             -
 -                                                                             -
 -------------------------------------------------------------------------------
 COUNTER                                    TOTAL       BLAS       SMM       ACC
 flops inhomo. stacks                           0       0.0%      0.0%      0.0%
 flops total                         0.000000E+00       0.0%      0.0%      0.0%
 flops max/rank                      0.000000E+00       0.0%      0.0%      0.0%
 matmuls inhomo. stacks                         0       0.0%      0.0%      0.0%
 matmuls total                                  0       0.0%      0.0%      0.0%
 number of processed stacks                     0       0.0%      0.0%      0.0%
 average stack size                                     0.0       0.0       0.0
 marketing flops                     0.000000E+00
 -------------------------------------------------------------------------------

 MEMORY| Estimated peak process memory [MiB]                                  47

 -------------------------------------------------------------------------------
 -                                                                             -
 -                           R E F E R E N C E S                               -
 -                                                                             -
 -------------------------------------------------------------------------------
 
 CP2K version 7.0 (Development Version), the CP2K developers group (2018).
 CP2K is freely available from https://www.cp2k.org/ .

 Schuett, Ole; Messmer, Peter; Hutter, Juerg; VandeVondele, Joost. 
 Electronic Structure Calculations on Graphics Processing Units, John Wiley & Sons, Ltd, 173-190 (2016). 
 GPU-Accelerated Sparse Matrix-Matrix Multiplication for Linear Scaling Density Functional Theory.
 http://dx.doi.org/10.1002/9781118670712.ch8


 Borstnik, U; VandeVondele, J; Weber, V; Hutter, J. 
 PARALLEL COMPUTING, 40 (5-6), 47-58 (2014). 
 Sparse matrix multiplication: The distributed block-compressed sparse
 row library.
 http://dx.doi.org/10.1016/j.parco.2014.03.012


 Hutter, J; Iannuzzi, M; Schiffmann, F; VandeVondele, J. 
 WILEY INTERDISCIPLINARY REVIEWS-COMPUTATIONAL MOLECULAR SCIENCE, 4 (1), 15-25 (2014). 
 CP2K: atomistic simulations of condensed matter systems.
 http://dx.doi.org/10.1002/wcms.1159


 Frigo, M; Johnson, SG. 
 PROCEEDINGS OF THE IEEE, 93 (2), 216-231 (2005). 
 The design and implementation of FFTW3.
 http://dx.doi.org/10.1109/JPROC.2004.840301


 Perdew, JP; Burke, K; Ernzerhof, M. 
 PHYSICAL REVIEW LETTERS, 77 (18), 3865-3868 (1996). 
 Generalized gradient approximation made simple.
 http://dx.doi.org/10.1103/PhysRevLett.77.3865


 -------------------------------------------------------------------------------
 -                                                                             -
 -                                T I M I N G                                  -
 -                                                                             -
 -------------------------------------------------------------------------------
 SUBROUTINE                       CALLS  ASD         SELF TIME        TOTAL TIME
                                MAXIMUM       AVERAGE  MAXIMUM  AVERAGE  MAXIMUM
 CP2K                                 1  1.0    0.002    0.002 1602.305 1602.305
 atom_code                            1  2.0    0.000    0.000 1602.303 1602.303
 atom_pseudo_opt                      1  3.0   10.159   10.159 1602.302 1602.302
 calculate_atom                    5783  4.0    0.019    0.019 1586.300 1586.300
 calculate_atom_restricted         5783  5.0  552.931  552.931 1586.281 1586.281
 calculate_atom_vxc_lda          291828  6.0  972.403  972.403 1033.350 1033.350
 xc_functional_eval              291828  7.0    0.675    0.675   60.682   60.682
 pbe_lda_eval                    291828  8.0   60.007   60.007   60.007   60.007
 -------------------------------------------------------------------------------

 The number of warnings for this run is : 0
 
 -------------------------------------------------------------------------------
  **** **** ******  **  PROGRAM ENDED AT                 2018-06-24 20:26:51.738
 ***** ** ***  *** **   PROGRAM RAN ON                                    tcpc01
 **    ****   ******    PROGRAM RAN BY                                    hutter
 ***** **    ** ** **   PROGRAM PROCESS ID                                  2173
  **** **  *******  **  PROGRAM STOPPED IN /data/hutter/pseudo/UZH2018/PBE/Fe/q1
                                           6
