
  **** **** ******  **  PROGRAM STARTED AT               2018-06-24 18:36:37.877
 ***** ** ***  *** **   PROGRAM STARTED ON                                tcpc01
 **    ****   ******    PROGRAM STARTED BY                                hutter
 ***** **    ** ** **   PROGRAM PROCESS ID                                  1228
  **** **  *******  **  PROGRAM STARTED IN /data/hutter/pseudo/UZH2018/PBE/Ca/q1
                                           0

 CP2K| version string:                    CP2K version 7.0 (Development Version)
 CP2K| source code revision number:                                    svn:18485
 CP2K| cp2kflags: libint fftw3 libxc libderiv_max_am1=5 libint_max_am=6 spglib  
 CP2K| is freely available from                            https://www.cp2k.org/
 CP2K| Program compiled at                         Wed Jun 20 10:41:43 CEST 2018
 CP2K| Program compiled on                                                tcpc01
 CP2K| Program compiled for                                                local
 CP2K| Data directory path                        /data/hutter/CURRENT/cp2k/data
 CP2K| Input file name                                                    Ca.inp

 GLOBAL| Method name                                                        ATOM
 GLOBAL| Project name                                                    PROJECT
 GLOBAL| Preferred FFT library                                             FFTW3
 GLOBAL| Preferred diagonalization lib.                                       SL
 GLOBAL| Run type                                                   ENERGY_FORCE
 GLOBAL| All-to-all communication in single precision                          F
 GLOBAL| FFTs using library dependent lengths                                  F
 GLOBAL| Global print level                                               MEDIUM
 GLOBAL| Total number of message passing processes                             1
 GLOBAL| Number of threads for this process                                    1
 GLOBAL| This output is from process                                           0
 GLOBAL| CPU model name :  Intel(R) Xeon(R) CPU           X5570  @ 2.93GHz

 MEMORY| system memory details [Kb]
 MEMORY|                        rank 0           min           max       average
 MEMORY| MemTotal             37009584      37009584      37009584      37009584
 MEMORY| MemFree              32300000      32300000      32300000      32300000
 MEMORY| Buffers                295236        295236        295236        295236
 MEMORY| Cached                2036308       2036308       2036308       2036308
 MEMORY| Slab                   272080        272080        272080        272080
 MEMORY| SReclaimable           203656        203656        203656        203656
 MEMORY| MemLikelyFree        34835200      34835200      34835200      34835200


 *** Fundamental physical constants (SI units) ***

 *** Literature: B. J. Mohr and B. N. Taylor,
 ***             CODATA recommended values of the fundamental physical
 ***             constants: 2006, Web Version 5.1
 ***             http://physics.nist.gov/constants

 Speed of light in vacuum [m/s]                             2.99792458000000E+08
 Magnetic constant or permeability of vacuum [N/A**2]       1.25663706143592E-06
 Electric constant or permittivity of vacuum [F/m]          8.85418781762039E-12
 Planck constant (h) [J*s]                                  6.62606896000000E-34
 Planck constant (h-bar) [J*s]                              1.05457162825177E-34
 Elementary charge [C]                                      1.60217648700000E-19
 Electron mass [kg]                                         9.10938215000000E-31
 Electron g factor [ ]                                     -2.00231930436220E+00
 Proton mass [kg]                                           1.67262163700000E-27
 Fine-structure constant                                    7.29735253760000E-03
 Rydberg constant [1/m]                                     1.09737315685270E+07
 Avogadro constant [1/mol]                                  6.02214179000000E+23
 Boltzmann constant [J/K]                                   1.38065040000000E-23
 Atomic mass unit [kg]                                      1.66053878200000E-27
 Bohr radius [m]                                            5.29177208590000E-11

 *** Conversion factors ***

 [u] -> [a.u.]                                              1.82288848426455E+03
 [Angstrom] -> [Bohr] = [a.u.]                              1.88972613288564E+00
 [a.u.] = [Bohr] -> [Angstrom]                              5.29177208590000E-01
 [a.u.] -> [s]                                              2.41888432650478E-17
 [a.u.] -> [fs]                                             2.41888432650478E-02
 [a.u.] -> [J]                                              4.35974393937059E-18
 [a.u.] -> [N]                                              8.23872205491840E-08
 [a.u.] -> [K]                                              3.15774647902944E+05
 [a.u.] -> [kJ/mol]                                         2.62549961709828E+03
 [a.u.] -> [kcal/mol]                                       6.27509468713739E+02
 [a.u.] -> [Pa]                                             2.94210107994716E+13
 [a.u.] -> [bar]                                            2.94210107994716E+08
 [a.u.] -> [atm]                                            2.90362800883016E+08
 [a.u.] -> [eV]                                             2.72113838565563E+01
 [a.u.] -> [Hz]                                             6.57968392072181E+15
 [a.u.] -> [1/cm] (wave numbers)                            2.19474631370540E+05
 [a.u./Bohr**2] -> [1/cm]                                   5.14048714338585E+03
 
 DBCSR| Multiplication driver                                               BLAS
 DBCSR| Multrec recursion limit                                              512
 DBCSR| Multiplication stack size                                           1000
 DBCSR| Maximum elements for images                                    UNLIMITED
 DBCSR| Multiplicative factor virtual images                                   1
 DBCSR| Multiplication size stacks                                             3



                           ****  ******  ****   ****   
                          **  ** ****** **  ** ******  
                          ******   **   **  ** **  **  
                          **  **   **    ****  **  **  
                                                       
                             University of Zurich      
                                 2009 - 2015           
                                                       
                                 Version 0.0           
                                                                   


 Atomic Energy Calculation             Calcium [Ca]          Atomic number:   20


 *******************************************************************************
 ************************** Calculate Reference States *************************
 *******************************************************************************

 METHOD    | Restricted Kohn-Sham Calculation
 METHOD    | Relativistic Calculation using Douglas-Kroll 3rd order
 FUNCTIONAL| ROUTINE=NEW
 FUNCTIONAL| PBE:
 FUNCTIONAL| J.P.Perdew, K.Burke, M.Ernzerhof, Phys. Rev. Letter, vol. 77, n 18,
 FUNCTIONAL|  pp. 3865-3868, (1996){spin unpolarized}                           

 Electronic structure
    Total number of core electrons                                          0.00
    Total number of valence electrons                                      20.00
    Total number of electrons                                              20.00
    Multiplicity                                                   not specified
    S      2.00  2.00  2.00  2.00
    P      6.00  6.00


 *******************************************************************************
                  Iteration          Convergence                     Energy [au]
 *******************************************************************************
                          1         6.92287                    -671.772807977511
                          2         2.78117                    -673.718427435188
                          3        0.685299                    -679.732350687136
                          4        0.186663                    -680.212554926038
                          5        0.614398E-02                -680.240029220350
                          6        0.952856E-03                -680.240090026336
                          7        0.275250E-03                -680.240091496158
                          8        0.582368E-05                -680.240091579365
                          9        0.332718E-06                -680.240091579423
                         10        0.173203E-06                -680.240091579420
                         11        0.136596E-06                -680.240091579416
                         12        0.138045E-07                -680.240091579421

 Energy components [Hartree]           Total Energy ::         -680.240091579421
                                        Band Energy ::         -404.172470851887
                                     Kinetic Energy ::          697.259713442146
                                   Potential Energy ::        -1377.499805021566
                                      Virial (-V/T) ::            1.975590699513
                                        Core Energy ::         -930.849836388133
                                          XC Energy ::          -36.055978550569
                                     Coulomb Energy ::          286.665723359281
                                        Confinement ::            0.000000448072

 Orbital energies  State     L     Occupation   Energy[a.u.]          Energy[eV]

                       1     0          2.000    -145.044662        -3946.865970
                       2     0          2.000     -15.217974         -414.102141
                       3     0          2.000      -1.728044          -47.022473
                       4     0          2.000      -0.137043           -3.729143
                       5     0          0.000       0.051973            1.414247
                       6     0          0.000       0.301004            8.190741

                       1     1          6.000     -12.292475         -334.495259
                       2     1          6.000      -1.027029          -27.946874
                       3     1          0.000      -0.047929           -1.304216
                       4     1          0.000       0.103353            2.812378


 Total Electron Density at R=0:                                      8705.038645

 *******************************************************************************
 ********************* Optimize Pseudopotential Parameters *********************
 *******************************************************************************

 POWELL| Start optimization procedure

 POWELL| Total number of parameters in optimization                           13

 POWELL| Initial errors of target values

 Reference configuration          1               Method number                1
    L    N    Occupation      Eigenvalue [eV]           dE [eV]          dCharge 
    0    1          2.00       -47.0319073877 SC  -0.009434[15]    -0.000007[ X]
    0    2          2.00        -3.7279435942 VA   0.001199[71]     0.001218[ 1]
    0    3          0.00         1.4099247347 U1  -0.004322[ 0]     0.000765[ X]
    0    4          0.00         8.1678667981 U2  -0.022874[ X]     0.001689[ 0]
    1    1          6.00       -27.9415471962 SC   0.005327[ 2]     0.000006[ X]
    1    2          0.00        -1.3152998142 U1  -0.011084[11]     0.002965[ 0]
    1    3          0.00         2.7936611434 U2  -0.018717[ X]     0.002086[ 0]

 Number of target values reached:                                       5 of  12

 POWELL| Start optimization   1 of total 100               rhobeg =   0.00020000
 POWELL| Inital value of function                                   2.0351116618
 POWELL| Reached   6% of maximal function calls                     2.0351116618
 POWELL| Reached   8% of maximal function calls                     2.0351116618
 POWELL| Reached  10% of maximal function calls                     2.0351116618
 POWELL| Reached  12% of maximal function calls                     2.0351116618
 POWELL| Reached  14% of maximal function calls                     2.0351116618
 POWELL| Reached  16% of maximal function calls                     2.0351116618
 POWELL| Reached  18% of maximal function calls                     2.0351116618
 POWELL| Reached  20% of maximal function calls                     2.0351116618
 POWELL| Reached  22% of maximal function calls                     2.0351116618
 POWELL| Reached  24% of maximal function calls                     2.0351116618
 POWELL| Reached  26% of maximal function calls                     2.0351116618
 POWELL| Reached  28% of maximal function calls                     2.0351116618
 POWELL| Reached  30% of maximal function calls                     2.0351116618
 POWELL| Reached  32% of maximal function calls                     1.9760276972
 POWELL| Reached  34% of maximal function calls                     1.9760276972
 POWELL| Reached  36% of maximal function calls                     1.9760276972
 POWELL| Reached  38% of maximal function calls                     1.9760276972
 POWELL| Reached  40% of maximal function calls                     1.9760276972
 POWELL| Reached  42% of maximal function calls                     1.9760276972
 POWELL| Reached  44% of maximal function calls                     1.9760276972
 POWELL| Reached  46% of maximal function calls                     1.9760276972
 POWELL| Reached  48% of maximal function calls                     1.9760276972
 POWELL| Reached  50% of maximal function calls                     1.9760276972
 POWELL| Reached  52% of maximal function calls                     1.9760276972
 POWELL| Reached  54% of maximal function calls                     1.9760276972
 POWELL| Reached  56% of maximal function calls                     1.9760276972
 POWELL| Reached  57% of maximal function calls                     1.9723494479
 POWELL| Reached  60% of maximal function calls                     1.9723494479
 POWELL| Reached  62% of maximal function calls                     1.9723494479
 POWELL| Reached  64% of maximal function calls                     1.9723494479
 POWELL| Reached  66% of maximal function calls                     1.9723494479
 POWELL| Reached  68% of maximal function calls                     1.9723493954
 POWELL| Reached  70% of maximal function calls                     1.9723185295
 POWELL| Reached  72% of maximal function calls                     1.9723185295
 POWELL| Reached  74% of maximal function calls                     1.9723185295
 POWELL| Reached  76% of maximal function calls                     1.9723185295
 POWELL| Reached  78% of maximal function calls                     1.9723185295
 POWELL| Reached  80% of maximal function calls                     1.9723185295
 POWELL| Reached  82% of maximal function calls                     1.9723185295
 POWELL| Reached  84% of maximal function calls                     1.9723185295
 POWELL| Reached  86% of maximal function calls                     1.9722632037
 POWELL| Reached  88% of maximal function calls                     1.9722449490
 POWELL| Reached  90% of maximal function calls                     1.9722449490
 POWELL| Reached  92% of maximal function calls                     1.9722110936
 POWELL| Reached  94% of maximal function calls                     1.9721123008
 POWELL| Reached  96% of maximal function calls                     1.9721123008
 POWELL| Reached  98% of maximal function calls                     1.9719267829
 POWELL| Reached 100% of maximal function calls                     1.9719267829
 POWELL| Reached 100% of maximal function calls                     1.9719267829
 POWELL| Exceeding maximum number of steps
 POWELL| Reached 100% of maximal function calls                     1.9719267829
 POWELL| RMS average of variables                                   0.0000611179
 POWELL| Start optimization   2 of total 100               rhobeg =   0.00019600
 POWELL| Inital value of function                                   1.9719267829
 POWELL| Reached   6% of maximal function calls                     1.9719267829
 POWELL| Reached   8% of maximal function calls                     1.9719267829
 POWELL| Reached  10% of maximal function calls                     1.9719267829
 POWELL| Reached  12% of maximal function calls                     1.9719267829
 POWELL| Reached  14% of maximal function calls                     1.9719267829
 POWELL| Reached  16% of maximal function calls                     1.9719267829
 POWELL| Reached  18% of maximal function calls                     1.9719267829
 POWELL| Reached  20% of maximal function calls                     1.9719267829
 POWELL| Reached  22% of maximal function calls                     1.9719267829
 POWELL| Reached  24% of maximal function calls                     1.9719267829
 POWELL| Reached  26% of maximal function calls                     1.9719267829
 POWELL| Reached  28% of maximal function calls                     1.9719267829
 POWELL| Reached  30% of maximal function calls                     1.9719267829
 POWELL| Reached  32% of maximal function calls                     1.9519892508
 POWELL| Reached  34% of maximal function calls                     1.9519892508
 POWELL| Reached  36% of maximal function calls                     1.9519892508
 POWELL| Reached  38% of maximal function calls                     1.9519892508
 POWELL| Reached  40% of maximal function calls                     1.9519892508
 POWELL| Reached  42% of maximal function calls                     1.9519892508
 POWELL| Reached  44% of maximal function calls                     1.9519892508
 POWELL| Reached  46% of maximal function calls                     1.9519892508
 POWELL| Reached  48% of maximal function calls                     1.9519892508
 POWELL| Reached  50% of maximal function calls                     1.9519892508
 POWELL| Reached  52% of maximal function calls                     1.9519892508
 POWELL| Reached  54% of maximal function calls                     1.9519892508
 POWELL| Reached  56% of maximal function calls                     1.9519892508
 POWELL| Reached  57% of maximal function calls                     1.9512788606
 POWELL| Reached  60% of maximal function calls                     1.9491594809
 POWELL| Reached  62% of maximal function calls                     1.9491594809
 POWELL| Reached  64% of maximal function calls                     1.9491594809
 POWELL| Reached  66% of maximal function calls                     1.9491594809
 POWELL| Reached  68% of maximal function calls                     1.9491594809
 POWELL| Reached  70% of maximal function calls                     1.9491594809
 POWELL| Reached  72% of maximal function calls                     1.9491594809
 POWELL| Reached  74% of maximal function calls                     1.9491594809
 POWELL| Reached  76% of maximal function calls                     1.9491520310
 POWELL| Reached  78% of maximal function calls                     1.9491520310
 POWELL| Reached  80% of maximal function calls                     1.9491520310
 POWELL| Reached  82% of maximal function calls                     1.9491520310
 POWELL| Reached  84% of maximal function calls                     1.9491520310
 POWELL| Reached  86% of maximal function calls                     1.9491520310
 POWELL| Reached  88% of maximal function calls                     1.9491520310
 POWELL| Reached  90% of maximal function calls                     1.9491520310
 POWELL| Reached  92% of maximal function calls                     1.9489673445
 POWELL| Reached  94% of maximal function calls                     1.9489673445
 POWELL| Reached  96% of maximal function calls                     1.9489673445
 POWELL| Reached  98% of maximal function calls                     1.9489671365
 POWELL| Reached 100% of maximal function calls                     1.9489092363
 POWELL| Reached 100% of maximal function calls                     1.9489092363
 POWELL| Exceeding maximum number of steps
 POWELL| Reached 100% of maximal function calls                     1.9489092363
 POWELL| RMS average of variables                                   0.0000600447
 POWELL| Start optimization   3 of total 100               rhobeg =   0.00019208
 POWELL| Inital value of function                                   1.9489092363
 POWELL| Reached   6% of maximal function calls                     1.9489092363
 POWELL| Reached   8% of maximal function calls                     1.9489092363
 POWELL| Reached  10% of maximal function calls                     1.9489092363
 POWELL| Reached  12% of maximal function calls                     1.9489092363
 POWELL| Reached  14% of maximal function calls                     1.9489092363
 POWELL| Reached  16% of maximal function calls                     1.9489092363
 POWELL| Reached  18% of maximal function calls                     1.9489092363
 POWELL| Reached  20% of maximal function calls                     1.9489092363
 POWELL| Reached  22% of maximal function calls                     1.9489092363
 POWELL| Reached  24% of maximal function calls                     1.9489092363
 POWELL| Reached  26% of maximal function calls                     1.9489092363
 POWELL| Reached  28% of maximal function calls                     1.9489092363
 POWELL| Reached  30% of maximal function calls                     1.9489092363
 POWELL| Reached  32% of maximal function calls                     1.9489092363
 POWELL| Reached  34% of maximal function calls                     1.9386440462
 POWELL| Reached  36% of maximal function calls                     1.9244136585
 POWELL| Reached  38% of maximal function calls                     1.9244136585
 POWELL| Reached  40% of maximal function calls                     1.9244136585
 POWELL| Reached  42% of maximal function calls                     1.9244136585
 POWELL| Reached  44% of maximal function calls                     1.9244136585
 POWELL| Reached  46% of maximal function calls                     1.9244136585
 POWELL| Reached  48% of maximal function calls                     1.9159066830
 POWELL| Reached  50% of maximal function calls                     1.9159066830
 POWELL| Reached  52% of maximal function calls                     1.9159066830
 POWELL| Reached  54% of maximal function calls                     1.9159066830
 POWELL| Reached  56% of maximal function calls                     1.9159066830
 POWELL| Reached  57% of maximal function calls                     1.9140656488
 POWELL| Reached  60% of maximal function calls                     1.9140656488
 POWELL| Reached  62% of maximal function calls                     1.9140656488
 POWELL| Reached  64% of maximal function calls                     1.9135687480
 POWELL| Reached  66% of maximal function calls                     1.9135687480
 POWELL| Reached  68% of maximal function calls                     1.9135687480
 POWELL| Reached  70% of maximal function calls                     1.9135687480
 POWELL| Reached  72% of maximal function calls                     1.9135687294
 POWELL| Reached  74% of maximal function calls                     1.9135512654
 POWELL| Reached  76% of maximal function calls                     1.9135317159
 POWELL| Reached  78% of maximal function calls                     1.9135317159
 POWELL| Reached  80% of maximal function calls                     1.9135317159
 POWELL| Reached  82% of maximal function calls                     1.9135317159
 POWELL| Reached  84% of maximal function calls                     1.9135317159
 POWELL| Reached  86% of maximal function calls                     1.9135293810
 POWELL| Reached  88% of maximal function calls                     1.9135293810
 POWELL| Reached  90% of maximal function calls                     1.9135279082
 POWELL| Reached  92% of maximal function calls                     1.9135253456
 POWELL| Reached  94% of maximal function calls                     1.9135253456
 POWELL| Reached  96% of maximal function calls                     1.9135240692
 POWELL| Reached  98% of maximal function calls                     1.9135240692
 POWELL| Reached 100% of maximal function calls                     1.9135240692
 POWELL| Reached 100% of maximal function calls                     1.9135240692
 POWELL| Exceeding maximum number of steps
 POWELL| Reached 100% of maximal function calls                     1.9135240692
 POWELL| RMS average of variables                                   0.0000586414
 POWELL| Start optimization   4 of total 100               rhobeg =   0.00018824
 POWELL| Inital value of function                                   1.9135240692
 POWELL| Reached   6% of maximal function calls                     1.9135240692
 POWELL| Reached   8% of maximal function calls                     1.9135240692
 POWELL| Reached  10% of maximal function calls                     1.9135240692
 POWELL| Reached  12% of maximal function calls                     1.9135240692
 POWELL| Reached  14% of maximal function calls                     1.9135240692
 POWELL| Reached  16% of maximal function calls                     1.9135240692
 POWELL| Reached  18% of maximal function calls                     1.9135240692
 POWELL| Reached  20% of maximal function calls                     1.9135240692
 POWELL| Reached  22% of maximal function calls                     1.9135240692
 POWELL| Reached  24% of maximal function calls                     1.9135240692
 POWELL| Reached  26% of maximal function calls                     1.9135240692
 POWELL| Reached  28% of maximal function calls                     1.9135240692
 POWELL| Reached  30% of maximal function calls                     1.9135240692
 POWELL| Reached  32% of maximal function calls                     1.9093293735
 POWELL| Reached  34% of maximal function calls                     1.9074146526
 POWELL| Reached  36% of maximal function calls                     1.8957817740
 POWELL| Reached  38% of maximal function calls                     1.8957817740
 POWELL| Reached  40% of maximal function calls                     1.8957817740
 POWELL| Reached  42% of maximal function calls                     1.8957817740
 POWELL| Reached  44% of maximal function calls                     1.8957817740
 POWELL| Reached  46% of maximal function calls                     1.8957817740
 POWELL| Reached  48% of maximal function calls                     1.8957817740
 POWELL| Reached  50% of maximal function calls                     1.8957817740
 POWELL| Reached  52% of maximal function calls                     1.8957817740
 POWELL| Reached  54% of maximal function calls                     1.8957817740
 POWELL| Reached  56% of maximal function calls                     1.8957817740
 POWELL| Reached  57% of maximal function calls                     1.8939843898
 POWELL| Reached  60% of maximal function calls                     1.8939843898
 POWELL| Reached  62% of maximal function calls                     1.8939843898
 POWELL| Reached  64% of maximal function calls                     1.8939843898
 POWELL| Reached  66% of maximal function calls                     1.8939843898
 POWELL| Reached  68% of maximal function calls                     1.8939843844
 POWELL| Reached  70% of maximal function calls                     1.8939688617
 POWELL| Reached  72% of maximal function calls                     1.8939599867
 POWELL| Reached  74% of maximal function calls                     1.8939599867
 POWELL| Reached  76% of maximal function calls                     1.8939599867
 POWELL| Reached  78% of maximal function calls                     1.8939599867
 POWELL| Reached  80% of maximal function calls                     1.8939599867
 POWELL| Reached  82% of maximal function calls                     1.8939599867
 POWELL| Reached  84% of maximal function calls                     1.8939599867
 POWELL| Reached  86% of maximal function calls                     1.8939405678
 POWELL| Reached  88% of maximal function calls                     1.8939399041
 POWELL| Reached  90% of maximal function calls                     1.8939399041
 POWELL| Reached  92% of maximal function calls                     1.8938409426
 POWELL| Reached  94% of maximal function calls                     1.8937930975
 POWELL| Reached  96% of maximal function calls                     1.8937917066
 POWELL| Reached  98% of maximal function calls                     1.8937727124
 POWELL| Reached 100% of maximal function calls                     1.8937603160
 POWELL| Reached 100% of maximal function calls                     1.8922882231
 POWELL| Exceeding maximum number of steps
 POWELL| Reached 100% of maximal function calls                     1.8922882231
 POWELL| RMS average of variables                                   0.0000573666
 POWELL| Start optimization   5 of total 100               rhobeg =   0.00018447
 POWELL| Inital value of function                                   1.8922882231
 POWELL| Reached   6% of maximal function calls                     1.8922882231
 POWELL| Reached   8% of maximal function calls                     1.8922882231
 POWELL| Reached  10% of maximal function calls                     1.8922882231
 POWELL| Reached  12% of maximal function calls                     1.8922882231
 POWELL| Reached  14% of maximal function calls                     1.8922882231
 POWELL| Reached  16% of maximal function calls                     1.8922882231
 POWELL| Reached  18% of maximal function calls                     1.8922882231
 POWELL| Reached  20% of maximal function calls                     1.8922882231
 POWELL| Reached  22% of maximal function calls                     1.8922882231
 POWELL| Reached  24% of maximal function calls                     1.8922882231
 POWELL| Reached  26% of maximal function calls                     1.8922882231
 POWELL| Reached  28% of maximal function calls                     1.8922882231
 POWELL| Reached  30% of maximal function calls                     1.8922882231
 POWELL| Reached  32% of maximal function calls                     1.8758971588
 POWELL| Reached  34% of maximal function calls                     1.8758971588
 POWELL| Reached  36% of maximal function calls                     1.8758971588
 POWELL| Reached  38% of maximal function calls                     1.8758971588
 POWELL| Reached  40% of maximal function calls                     1.8758971588
 POWELL| Reached  42% of maximal function calls                     1.8758971588
 POWELL| Reached  44% of maximal function calls                     1.8758971588
 POWELL| Reached  46% of maximal function calls                     1.8758971588
 POWELL| Reached  48% of maximal function calls                     1.8758971588
 POWELL| Reached  50% of maximal function calls                     1.8758971588
 POWELL| Reached  52% of maximal function calls                     1.8758971588
 POWELL| Reached  54% of maximal function calls                     1.8758971588
 POWELL| Reached  56% of maximal function calls                     1.8758971588
 POWELL| Reached  57% of maximal function calls                     1.8756166477
 POWELL| Reached  60% of maximal function calls                     1.8756166477
 POWELL| Reached  62% of maximal function calls                     1.8756166477
 POWELL| Reached  64% of maximal function calls                     1.8756166477
 POWELL| Reached  66% of maximal function calls                     1.8756166477
 POWELL| Reached  68% of maximal function calls                     1.8756166250
 POWELL| Reached  70% of maximal function calls                     1.8756151775
 POWELL| Reached  72% of maximal function calls                     1.8756151775
 POWELL| Reached  74% of maximal function calls                     1.8756151775
 POWELL| Reached  76% of maximal function calls                     1.8756151775
 POWELL| Reached  78% of maximal function calls                     1.8756151775
 POWELL| Reached  80% of maximal function calls                     1.8755479365
 POWELL| Reached  82% of maximal function calls                     1.8755479365
 POWELL| Reached  84% of maximal function calls                     1.8755228547
 POWELL| Reached  86% of maximal function calls                     1.8755204869
 POWELL| Reached  88% of maximal function calls                     1.8754971291
 POWELL| Reached  90% of maximal function calls                     1.8754971291
 POWELL| Reached  92% of maximal function calls                     1.8754767643
 POWELL| Reached  94% of maximal function calls                     1.8754528784
 POWELL| Reached  96% of maximal function calls                     1.8753513483
 POWELL| Reached  98% of maximal function calls                     1.8753513483
 POWELL| Reached 100% of maximal function calls                     1.8753513483
 POWELL| Reached 100% of maximal function calls                     1.8753513483
 POWELL| Exceeding maximum number of steps
 POWELL| Reached 100% of maximal function calls                     1.8753513483
 POWELL| RMS average of variables                                   0.0000562923
 POWELL| Start optimization   6 of total 100               rhobeg =   0.00018078
 POWELL| Inital value of function                                   1.8753513483
 POWELL| Reached   6% of maximal function calls                     1.8753513483
 POWELL| Reached   8% of maximal function calls                     1.8753513483
 POWELL| Reached  10% of maximal function calls                     1.8753513483
 POWELL| Reached  12% of maximal function calls                     1.8753513483
 POWELL| Reached  14% of maximal function calls                     1.8753513483
 POWELL| Reached  16% of maximal function calls                     1.8753513483
 POWELL| Reached  18% of maximal function calls                     1.8753513483
 POWELL| Reached  20% of maximal function calls                     1.8753513483
 POWELL| Reached  22% of maximal function calls                     1.8753513483
 POWELL| Reached  24% of maximal function calls                     1.8753513483
 POWELL| Reached  26% of maximal function calls                     1.8753513483
 POWELL| Reached  28% of maximal function calls                     1.8753513483
 POWELL| Reached  30% of maximal function calls                     1.8753513483
 POWELL| Reached  32% of maximal function calls                     1.8753513483
 POWELL| Reached  34% of maximal function calls                     1.8665416575
 POWELL| Reached  36% of maximal function calls                     1.8505475711
 POWELL| Reached  38% of maximal function calls                     1.8505475711
 POWELL| Reached  40% of maximal function calls                     1.8505475711
 POWELL| Reached  42% of maximal function calls                     1.8505475711
 POWELL| Reached  44% of maximal function calls                     1.8505475711
 POWELL| Reached  46% of maximal function calls                     1.8505475711
 POWELL| Reached  48% of maximal function calls                     1.8505475711
 POWELL| Reached  50% of maximal function calls                     1.8505475711
 POWELL| Reached  52% of maximal function calls                     1.8505475711
 POWELL| Reached  54% of maximal function calls                     1.8505475711
 POWELL| Reached  56% of maximal function calls                     1.8505475711
 POWELL| Reached  57% of maximal function calls                     1.8482314234
 POWELL| Reached  60% of maximal function calls                     1.8482314234
 POWELL| Reached  62% of maximal function calls                     1.8482314234
 POWELL| Reached  64% of maximal function calls                     1.8482314234
 POWELL| Reached  66% of maximal function calls                     1.8482314234
 POWELL| Reached  68% of maximal function calls                     1.8482314234
 POWELL| Reached  70% of maximal function calls                     1.8482314234
 POWELL| Reached  72% of maximal function calls                     1.8482302114
 POWELL| Reached  74% of maximal function calls                     1.8482302114
 POWELL| Reached  76% of maximal function calls                     1.8482302114
 POWELL| Reached  78% of maximal function calls                     1.8482302114
 POWELL| Reached  80% of maximal function calls                     1.8482302114
 POWELL| Reached  82% of maximal function calls                     1.8482302114
 POWELL| Reached  84% of maximal function calls                     1.8482302114
 POWELL| Reached  86% of maximal function calls                     1.8482151600
 POWELL| Reached  88% of maximal function calls                     1.8481953030
 POWELL| Reached  90% of maximal function calls                     1.8481827193
 POWELL| Reached  92% of maximal function calls                     1.8481827193
 POWELL| Reached  94% of maximal function calls                     1.8481827193
 POWELL| Reached  96% of maximal function calls                     1.8481126203
 POWELL| Reached  98% of maximal function calls                     1.8481126203
 POWELL| Reached 100% of maximal function calls                     1.8481093315
 POWELL| Reached 100% of maximal function calls                     1.8480075506
 POWELL| Exceeding maximum number of steps
 POWELL| Reached 100% of maximal function calls                     1.8480075506
 POWELL| RMS average of variables                                   0.0000551839
 POWELL| Start optimization   7 of total 100               rhobeg =   0.00017717
 POWELL| Inital value of function                                   1.8480075506
 POWELL| Reached   6% of maximal function calls                     1.8480075506
 POWELL| Reached   8% of maximal function calls                     1.8480075506
 POWELL| Reached  10% of maximal function calls                     1.8480075506
 POWELL| Reached  12% of maximal function calls                     1.8480075506
 POWELL| Reached  14% of maximal function calls                     1.8480075506
 POWELL| Reached  16% of maximal function calls                     1.8480075506
 POWELL| Reached  18% of maximal function calls                     1.8480075506
 POWELL| Reached  20% of maximal function calls                     1.8480075506
 POWELL| Reached  22% of maximal function calls                     1.8480075506
 POWELL| Reached  24% of maximal function calls                     1.8480075506
 POWELL| Reached  26% of maximal function calls                     1.8480075506
 POWELL| Reached  28% of maximal function calls                     1.8480075506
 POWELL| Reached  30% of maximal function calls                     1.8480075506
 POWELL| Reached  32% of maximal function calls                     1.8480075506
 POWELL| Reached  34% of maximal function calls                     1.8400003504
 POWELL| Reached  36% of maximal function calls                     1.8268962446
 POWELL| Reached  38% of maximal function calls                     1.8268962446
 POWELL| Reached  40% of maximal function calls                     1.8268962446
 POWELL| Reached  42% of maximal function calls                     1.8268962446
 POWELL| Reached  44% of maximal function calls                     1.8268962446
 POWELL| Reached  46% of maximal function calls                     1.8268962446
 POWELL| Reached  48% of maximal function calls                     1.8268962446
 POWELL| Reached  50% of maximal function calls                     1.8268962446
 POWELL| Reached  52% of maximal function calls                     1.8268962446
 POWELL| Reached  54% of maximal function calls                     1.8268962446
 POWELL| Reached  56% of maximal function calls                     1.8268962446
 POWELL| Reached  57% of maximal function calls                     1.8249415204
 POWELL| Reached  60% of maximal function calls                     1.8249415204
 POWELL| Reached  62% of maximal function calls                     1.8249415204
 POWELL| Reached  64% of maximal function calls                     1.8249415204
 POWELL| Reached  66% of maximal function calls                     1.8249415204
 POWELL| Reached  68% of maximal function calls                     1.8249415204
 POWELL| Reached  70% of maximal function calls                     1.8249415204
 POWELL| Reached  72% of maximal function calls                     1.8249415204
 POWELL| Reached  74% of maximal function calls                     1.8249415204
 POWELL| Reached  76% of maximal function calls                     1.8249415204
 POWELL| Reached  78% of maximal function calls                     1.8249377362
 POWELL| Reached  80% of maximal function calls                     1.8249019521
 POWELL| Reached  82% of maximal function calls                     1.8249019521
 POWELL| Reached  84% of maximal function calls                     1.8248652066
 POWELL| Reached  86% of maximal function calls                     1.8248652066
 POWELL| Reached  88% of maximal function calls                     1.8247355075
 POWELL| Reached  90% of maximal function calls                     1.8247355075
 POWELL| Reached  92% of maximal function calls                     1.8246470134
 POWELL| Reached  94% of maximal function calls                     1.8246470134
 POWELL| Reached  96% of maximal function calls                     1.8246470134
 POWELL| Reached  98% of maximal function calls                     1.8246470134
 POWELL| Reached 100% of maximal function calls                     1.8246469963
 POWELL| Reached 100% of maximal function calls                     1.8246297365
 POWELL| Exceeding maximum number of steps
 POWELL| Reached 100% of maximal function calls                     1.8246297365
 POWELL| RMS average of variables                                   0.0000541275
 POWELL| Start optimization   8 of total 100               rhobeg =   0.00017363
 POWELL| Inital value of function                                   1.8246297365
 POWELL| Reached   6% of maximal function calls                     1.8246297365
 POWELL| Reached   8% of maximal function calls                     1.8246297365
 POWELL| Reached  10% of maximal function calls                     1.8246297365
 POWELL| Reached  12% of maximal function calls                     1.8246297365
 POWELL| Reached  14% of maximal function calls                     1.8246297365
 POWELL| Reached  16% of maximal function calls                     1.8246297365
 POWELL| Reached  18% of maximal function calls                     1.8246297365
 POWELL| Reached  20% of maximal function calls                     1.8246297365
 POWELL| Reached  22% of maximal function calls                     1.8246297365
 POWELL| Reached  24% of maximal function calls                     1.8246297365
 POWELL| Reached  26% of maximal function calls                     1.8246297365
 POWELL| Reached  28% of maximal function calls                     1.8246297365
 POWELL| Reached  30% of maximal function calls                     1.8246297365
 POWELL| Reached  32% of maximal function calls                     1.8168707933
 POWELL| Reached  34% of maximal function calls                     1.8168707933
 POWELL| Reached  36% of maximal function calls                     1.8070124508
 POWELL| Reached  38% of maximal function calls                     1.8070124508
 POWELL| Reached  40% of maximal function calls                     1.8070124508
 POWELL| Reached  42% of maximal function calls                     1.8070124508
 POWELL| Reached  44% of maximal function calls                     1.8070124508
 POWELL| Reached  46% of maximal function calls                     1.8070124508
 POWELL| Reached  48% of maximal function calls                     1.8070124508
 POWELL| Reached  50% of maximal function calls                     1.8070124508
 POWELL| Reached  52% of maximal function calls                     1.8070124508
 POWELL| Reached  54% of maximal function calls                     1.8070124508
 POWELL| Reached  56% of maximal function calls                     1.8070124508
 POWELL| Reached  57% of maximal function calls                     1.8053991710
 POWELL| Reached  60% of maximal function calls                     1.8053991710
 POWELL| Reached  62% of maximal function calls                     1.8053991710
 POWELL| Reached  64% of maximal function calls                     1.8053991710
 POWELL| Reached  66% of maximal function calls                     1.8053991710
 POWELL| Reached  68% of maximal function calls                     1.8053991710
 POWELL| Reached  70% of maximal function calls                     1.8053991710
 POWELL| Reached  72% of maximal function calls                     1.8053991710
 POWELL| Reached  74% of maximal function calls                     1.8053991710
 POWELL| Reached  76% of maximal function calls                     1.8053991710
 POWELL| Reached  78% of maximal function calls                     1.8053991710
 POWELL| Reached  80% of maximal function calls                     1.8053991710
 POWELL| Reached  82% of maximal function calls                     1.8053991710
 POWELL| Reached  84% of maximal function calls                     1.8053991710
 POWELL| Reached  86% of maximal function calls                     1.8053369179
 POWELL| Reached  88% of maximal function calls                     1.8052511519
 POWELL| Reached  90% of maximal function calls                     1.8052511519
 POWELL| Reached  92% of maximal function calls                     1.8051485065
 POWELL| Reached  94% of maximal function calls                     1.8051485065
 POWELL| Reached  96% of maximal function calls                     1.8051485065
 POWELL| Reached  98% of maximal function calls                     1.8050827232
 POWELL| Reached 100% of maximal function calls                     1.8050827232
 POWELL| Reached 100% of maximal function calls                     1.8050827232
 POWELL| Exceeding maximum number of steps
 POWELL| Reached 100% of maximal function calls                     1.8050827232
 POWELL| RMS average of variables                                   0.0000530146
 POWELL| Start optimization   9 of total 100               rhobeg =   0.00017015
 POWELL| Inital value of function                                   1.8050827232
 POWELL| Reached   6% of maximal function calls                     1.8050827232
 POWELL| Reached   8% of maximal function calls                     1.8050827232
 POWELL| Reached  10% of maximal function calls                     1.8050827232
 POWELL| Reached  12% of maximal function calls                     1.8050827232
 POWELL| Reached  14% of maximal function calls                     1.8050827232
 POWELL| Reached  16% of maximal function calls                     1.8050827232
 POWELL| Reached  18% of maximal function calls                     1.8050827232
 POWELL| Reached  20% of maximal function calls                     1.8050827232
 POWELL| Reached  22% of maximal function calls                     1.8050827232
 POWELL| Reached  24% of maximal function calls                     1.8050827232
 POWELL| Reached  26% of maximal function calls                     1.8050827232
 POWELL| Reached  28% of maximal function calls                     1.8050827232
 POWELL| Reached  30% of maximal function calls                     1.8050827232
 POWELL| Reached  32% of maximal function calls                     1.7842415959
 POWELL| Reached  34% of maximal function calls                     1.7842415959
 POWELL| Reached  36% of maximal function calls                     1.7842415959
 POWELL| Reached  38% of maximal function calls                     1.7842415959
 POWELL| Reached  40% of maximal function calls                     1.7842415959
 POWELL| Reached  42% of maximal function calls                     1.7842415959
 POWELL| Reached  44% of maximal function calls                     1.7842415959
 POWELL| Reached  46% of maximal function calls                     1.7842415959
 POWELL| Reached  48% of maximal function calls                     1.7842415959
 POWELL| Reached  50% of maximal function calls                     1.7842415959
 POWELL| Reached  52% of maximal function calls                     1.7842415959
 POWELL| Reached  54% of maximal function calls                     1.7842415959
 POWELL| Reached  56% of maximal function calls                     1.7842415959
 POWELL| Reached  57% of maximal function calls                     1.7836590749
 POWELL| Reached  60% of maximal function calls                     1.7836590749
 POWELL| Reached  62% of maximal function calls                     1.7836590749
 POWELL| Reached  64% of maximal function calls                     1.7836590749
 POWELL| Reached  66% of maximal function calls                     1.7836590749
 POWELL| Reached  68% of maximal function calls                     1.7836590477
 POWELL| Reached  70% of maximal function calls                     1.7836548199
 POWELL| Reached  72% of maximal function calls                     1.7836548199
 POWELL| Reached  74% of maximal function calls                     1.7836548199
 POWELL| Reached  76% of maximal function calls                     1.7817986400
 POWELL| Reached  78% of maximal function calls                     1.7817986400
 POWELL| Reached  80% of maximal function calls                     1.7817986400
 POWELL| Reached  82% of maximal function calls                     1.7817986400
 POWELL| Reached  84% of maximal function calls                     1.7817871571
 POWELL| Reached  86% of maximal function calls                     1.7817732976
 POWELL| Reached  88% of maximal function calls                     1.7816115556
 POWELL| Reached  90% of maximal function calls                     1.7816115556
 POWELL| Reached  92% of maximal function calls                     1.7815151138
 POWELL| Reached  94% of maximal function calls                     1.7815151138
 POWELL| Reached  96% of maximal function calls                     1.7815151138
 POWELL| Reached  98% of maximal function calls                     1.7815151138
 POWELL| Reached 100% of maximal function calls                     1.7815121385
 POWELL| Reached 100% of maximal function calls                     1.7815121385
 POWELL| Exceeding maximum number of steps
 POWELL| Reached 100% of maximal function calls                     1.7815121385
 POWELL| RMS average of variables                                   0.0000519255
 POWELL| Start optimization  10 of total 100               rhobeg =   0.00016675
 POWELL| Inital value of function                                   1.7815121385
 POWELL| Reached   6% of maximal function calls                     1.7815121385
 POWELL| Reached   8% of maximal function calls                     1.7815121385
 POWELL| Reached  10% of maximal function calls                     1.7815121385
 POWELL| Reached  12% of maximal function calls                     1.7815121385
 POWELL| Reached  14% of maximal function calls                     1.7815121385
 POWELL| Reached  16% of maximal function calls                     1.7815121385
 POWELL| Reached  18% of maximal function calls                     1.7815121385
 POWELL| Reached  20% of maximal function calls                     1.7815121385
 POWELL| Reached  22% of maximal function calls                     1.7815121385
 POWELL| Reached  24% of maximal function calls                     1.7815121385
 POWELL| Reached  26% of maximal function calls                     1.7815121385
 POWELL| Reached  28% of maximal function calls                     1.7815121385
 POWELL| Reached  30% of maximal function calls                     1.7815121385
 POWELL| Reached  32% of maximal function calls                     1.7815121385
 POWELL| Reached  34% of maximal function calls                     1.7736126589
 POWELL| Reached  36% of maximal function calls                     1.7598681968
 POWELL| Reached  38% of maximal function calls                     1.7598681968
 POWELL| Reached  40% of maximal function calls                     1.7598681968
 POWELL| Reached  42% of maximal function calls                     1.7598681968
 POWELL| Reached  44% of maximal function calls                     1.7598681968
 POWELL| Reached  46% of maximal function calls                     1.7598681968
 POWELL| Reached  48% of maximal function calls                     1.7598681968
 POWELL| Reached  50% of maximal function calls                     1.7598681968
 POWELL| Reached  52% of maximal function calls                     1.7598681968
 POWELL| Reached  54% of maximal function calls                     1.7598681968
 POWELL| Reached  56% of maximal function calls                     1.7598681968
 POWELL| Reached  57% of maximal function calls                     1.7578411651
 POWELL| Reached  60% of maximal function calls                     1.7578411651
 POWELL| Reached  62% of maximal function calls                     1.7578411651
 POWELL| Reached  64% of maximal function calls                     1.7578411651
 POWELL| Reached  66% of maximal function calls                     1.7578411651
 POWELL| Reached  68% of maximal function calls                     1.7578411566
 POWELL| Reached  70% of maximal function calls                     1.7578236216
 POWELL| Reached  72% of maximal function calls                     1.7578236216
 POWELL| Reached  74% of maximal function calls                     1.7578236216
 POWELL| Reached  76% of maximal function calls                     1.7578236216
 POWELL| Reached  78% of maximal function calls                     1.7578236216
 POWELL| Reached  80% of maximal function calls                     1.7578236216
 POWELL| Reached  82% of maximal function calls                     1.7578236216
 POWELL| Reached  84% of maximal function calls                     1.7578236216
 POWELL| Reached  86% of maximal function calls                     1.7578236216
 POWELL| Reached  88% of maximal function calls                     1.7578236198
 POWELL| Reached  90% of maximal function calls                     1.7578236198
 POWELL| Reached  92% of maximal function calls                     1.7578104154
 POWELL| Reached  94% of maximal function calls                     1.7578104154
 POWELL| Reached  96% of maximal function calls                     1.7576988472
 POWELL| Reached  98% of maximal function calls                     1.7575734418
 POWELL| Reached 100% of maximal function calls                     1.7575666215
 POWELL| Reached 100% of maximal function calls                     1.7575666215
 POWELL| Exceeding maximum number of steps
 POWELL| Reached 100% of maximal function calls                     1.7575666215
 POWELL| RMS average of variables                                   0.0000509074
 POWELL| Start optimization  11 of total 100               rhobeg =   0.00016341
 POWELL| Inital value of function                                   1.7575666215
 POWELL| Reached   6% of maximal function calls                     1.7575666215
 POWELL| Reached   8% of maximal function calls                     1.7575666215
 POWELL| Reached  10% of maximal function calls                     1.7575666215
 POWELL| Reached  12% of maximal function calls                     1.7575666215
 POWELL| Reached  14% of maximal function calls                     1.7575666215
 POWELL| Reached  16% of maximal function calls                     1.7575666215
 POWELL| Reached  18% of maximal function calls                     1.7575666215
 POWELL| Reached  20% of maximal function calls                     1.7575666215
 POWELL| Reached  22% of maximal function calls                     1.7575666215
 POWELL| Reached  24% of maximal function calls                     1.7575666215
 POWELL| Reached  26% of maximal function calls                     1.7575666215
 POWELL| Reached  28% of maximal function calls                     1.7575666215
 POWELL| Reached  30% of maximal function calls                     1.7575666215
 POWELL| Reached  32% of maximal function calls                     1.7541971227
 POWELL| Reached  34% of maximal function calls                     1.7503544604
 POWELL| Reached  36% of maximal function calls                     1.7390680697
 POWELL| Reached  38% of maximal function calls                     1.7390680697
 POWELL| Reached  40% of maximal function calls                     1.7390680697
 POWELL| Reached  42% of maximal function calls                     1.7390680697
 POWELL| Reached  44% of maximal function calls                     1.7390680697
 POWELL| Reached  46% of maximal function calls                     1.7390680697
 POWELL| Reached  48% of maximal function calls                     1.7390680697
 POWELL| Reached  50% of maximal function calls                     1.7390680697
 POWELL| Reached  52% of maximal function calls                     1.7390680697
 POWELL| Reached  54% of maximal function calls                     1.7390680697
 POWELL| Reached  56% of maximal function calls                     1.7390680697
 POWELL| Reached  57% of maximal function calls                     1.7373501197
 POWELL| Reached  60% of maximal function calls                     1.7373501197
 POWELL| Reached  62% of maximal function calls                     1.7373501197
 POWELL| Reached  64% of maximal function calls                     1.7373501197
 POWELL| Reached  66% of maximal function calls                     1.7373501197
 POWELL| Reached  68% of maximal function calls                     1.7373501197
 POWELL| Reached  70% of maximal function calls                     1.7373501197
 POWELL| Reached  72% of maximal function calls                     1.7373501197
 POWELL| Reached  74% of maximal function calls                     1.7373501197
 POWELL| Reached  76% of maximal function calls                     1.7373501197
 POWELL| Reached  78% of maximal function calls                     1.7373501197
 POWELL| Reached  80% of maximal function calls                     1.7373501197
 POWELL| Reached  82% of maximal function calls                     1.7373501197
 POWELL| Reached  84% of maximal function calls                     1.7373501197
 POWELL| Reached  86% of maximal function calls                     1.7373497866
 POWELL| Reached  88% of maximal function calls                     1.7373497866
 POWELL| Reached  90% of maximal function calls                     1.7373371963
 POWELL| Reached  92% of maximal function calls                     1.7373371963
 POWELL| Reached  94% of maximal function calls                     1.7373371963
 POWELL| Reached  96% of maximal function calls                     1.7373371963
 POWELL| Reached  98% of maximal function calls                     1.7373371963
 POWELL| Reached 100% of maximal function calls                     1.7373371963
 POWELL| Reached 100% of maximal function calls                     1.7373353085
 POWELL| Exceeding maximum number of steps
 POWELL| Reached 100% of maximal function calls                     1.7373353085
 POWELL| RMS average of variables                                   0.0000499120
 POWELL| Start optimization  12 of total 100               rhobeg =   0.00016015
 POWELL| Inital value of function                                   1.7373353085
 POWELL| Reached   6% of maximal function calls                     1.7373353085
 POWELL| Reached   8% of maximal function calls                     1.7373353085
 POWELL| Reached  10% of maximal function calls                     1.7373353085
 POWELL| Reached  12% of maximal function calls                     1.7373353085
 POWELL| Reached  14% of maximal function calls                     1.7373353085
 POWELL| Reached  16% of maximal function calls                     1.7373353085
 POWELL| Reached  18% of maximal function calls                     1.7373353085
 POWELL| Reached  20% of maximal function calls                     1.7373353085
 POWELL| Reached  22% of maximal function calls                     1.7373353085
 POWELL| Reached  24% of maximal function calls                     1.7373353085
 POWELL| Reached  26% of maximal function calls                     1.7373353085
 POWELL| Reached  28% of maximal function calls                     1.7373353085
 POWELL| Reached  30% of maximal function calls                     1.7373353085
 POWELL| Reached  32% of maximal function calls                     1.7271737170
 POWELL| Reached  34% of maximal function calls                     1.7271737170
 POWELL| Reached  36% of maximal function calls                     1.7217710002
 POWELL| Reached  38% of maximal function calls                     1.7217710002
 POWELL| Reached  40% of maximal function calls                     1.7217710002
 POWELL| Reached  42% of maximal function calls                     1.7217710002
 POWELL| Reached  44% of maximal function calls                     1.7217710002
 POWELL| Reached  46% of maximal function calls                     1.7217710002
 POWELL| Reached  48% of maximal function calls                     1.7217710002
 POWELL| Reached  50% of maximal function calls                     1.7217710002
 POWELL| Reached  52% of maximal function calls                     1.7217710002
 POWELL| Reached  54% of maximal function calls                     1.7217710002
 POWELL| Reached  56% of maximal function calls                     1.7217710002
 POWELL| Reached  57% of maximal function calls                     1.7203412075
 POWELL| Reached  60% of maximal function calls                     1.7203412075
 POWELL| Reached  62% of maximal function calls                     1.7203412075
 POWELL| Reached  64% of maximal function calls                     1.7203412075
 POWELL| Reached  66% of maximal function calls                     1.7203412075
 POWELL| Reached  68% of maximal function calls                     1.7203411951
 POWELL| Reached  70% of maximal function calls                     1.7203288492
 POWELL| Reached  72% of maximal function calls                     1.7203288492
 POWELL| Reached  74% of maximal function calls                     1.7203288492
 POWELL| Reached  76% of maximal function calls                     1.7203288492
 POWELL| Reached  78% of maximal function calls                     1.7203288492
 POWELL| Reached  80% of maximal function calls                     1.7203288492
 POWELL| Reached  82% of maximal function calls                     1.7203277719
 POWELL| Reached  84% of maximal function calls                     1.7203277719
 POWELL| Reached  86% of maximal function calls                     1.7203253987
 POWELL| Reached  88% of maximal function calls                     1.7203253987
 POWELL| Reached  90% of maximal function calls                     1.7203253987
 POWELL| Reached  92% of maximal function calls                     1.7203251929
 POWELL| Reached  94% of maximal function calls                     1.7203242087
 POWELL| Reached  96% of maximal function calls                     1.7203214948
 POWELL| Reached  98% of maximal function calls                     1.7203214948
 POWELL| Reached 100% of maximal function calls                     1.7203210659
 POWELL| Reached 100% of maximal function calls                     1.7203144965
 POWELL| Exceeding maximum number of steps
 POWELL| Reached 100% of maximal function calls                     1.7203144965
 POWELL| RMS average of variables                                   0.0000488967
 POWELL| Start optimization  13 of total 100               rhobeg =   0.00015694
 POWELL| Inital value of function                                   1.7203144965
 POWELL| Reached   6% of maximal function calls                     1.7203144965
 POWELL| Reached   8% of maximal function calls                     1.7203144965
 POWELL| Reached  10% of maximal function calls                     1.7203144965
 POWELL| Reached  12% of maximal function calls                     1.7203144965
 POWELL| Reached  14% of maximal function calls                     1.7203144965
 POWELL| Reached  16% of maximal function calls                     1.7203144965
 POWELL| Reached  18% of maximal function calls                     1.7203144965
 POWELL| Reached  20% of maximal function calls                     1.7203144965
 POWELL| Reached  22% of maximal function calls                     1.7203144965
 POWELL| Reached  24% of maximal function calls                     1.7203144965
 POWELL| Reached  26% of maximal function calls                     1.7203144965
 POWELL| Reached  28% of maximal function calls                     1.7203144965
 POWELL| Reached  30% of maximal function calls                     1.7203144965
 POWELL| Reached  32% of maximal function calls                     1.7037697506
 POWELL| Reached  34% of maximal function calls                     1.7037697506
 POWELL| Reached  36% of maximal function calls                     1.7037697506
 POWELL| Reached  38% of maximal function calls                     1.7037697506
 POWELL| Reached  40% of maximal function calls                     1.7037697506
 POWELL| Reached  42% of maximal function calls                     1.7037697506
 POWELL| Reached  44% of maximal function calls                     1.7037697506
 POWELL| Reached  46% of maximal function calls                     1.7037697506
 POWELL| Reached  48% of maximal function calls                     1.7037697506
 POWELL| Reached  50% of maximal function calls                     1.7037697506
 POWELL| Reached  52% of maximal function calls                     1.7037697506
 POWELL| Reached  54% of maximal function calls                     1.7037697506
 POWELL| Reached  56% of maximal function calls                     1.7037697506
 POWELL| Reached  57% of maximal function calls                     1.7030083712
 POWELL| Reached  60% of maximal function calls                     1.7030083712
 POWELL| Reached  62% of maximal function calls                     1.7030083712
 POWELL| Reached  64% of maximal function calls                     1.7030083712
 POWELL| Reached  66% of maximal function calls                     1.7030083712
 POWELL| Reached  68% of maximal function calls                     1.7030083657
 POWELL| Reached  70% of maximal function calls                     1.7030024188
 POWELL| Reached  72% of maximal function calls                     1.7030024188
 POWELL| Reached  74% of maximal function calls                     1.7030024188
 POWELL| Reached  76% of maximal function calls                     1.7030024188
 POWELL| Reached  78% of maximal function calls                     1.7030024188
 POWELL| Reached  80% of maximal function calls                     1.7030024188
 POWELL| Reached  82% of maximal function calls                     1.7030024188
 POWELL| Reached  84% of maximal function calls                     1.7030024188
 POWELL| Reached  86% of maximal function calls                     1.7029945923
 POWELL| Reached  88% of maximal function calls                     1.7029518185
 POWELL| Reached  90% of maximal function calls                     1.7029518185
 POWELL| Reached  92% of maximal function calls                     1.7029518185
 POWELL| Reached  94% of maximal function calls                     1.7029518185
 POWELL| Reached  96% of maximal function calls                     1.7029439630
 POWELL| Reached  98% of maximal function calls                     1.7028552089
 POWELL| Reached 100% of maximal function calls                     1.7028523674
 POWELL| Reached 100% of maximal function calls                     1.7028523674
 POWELL| Exceeding maximum number of steps
 POWELL| Reached 100% of maximal function calls                     1.7028523674
 POWELL| RMS average of variables                                   0.0000478426
 POWELL| Start optimization  14 of total 100               rhobeg =   0.00015380
 POWELL| Inital value of function                                   1.7028523674
 POWELL| Reached   6% of maximal function calls                     1.7028523674
 POWELL| Reached   8% of maximal function calls                     1.7028523674
 POWELL| Reached  10% of maximal function calls                     1.7028523674
 POWELL| Reached  12% of maximal function calls                     1.7028523674
 POWELL| Reached  14% of maximal function calls                     1.7028523674
 POWELL| Reached  16% of maximal function calls                     1.7028523674
 POWELL| Reached  18% of maximal function calls                     1.7028523674
 POWELL| Reached  20% of maximal function calls                     1.7028523674
 POWELL| Reached  22% of maximal function calls                     1.7028523674
 POWELL| Reached  24% of maximal function calls                     1.7028523674
 POWELL| Reached  26% of maximal function calls                     1.7028523674
 POWELL| Reached  28% of maximal function calls                     1.7028523674
 POWELL| Reached  30% of maximal function calls                     1.7028523674
 POWELL| Reached  32% of maximal function calls                     1.7028523674
 POWELL| Reached  34% of maximal function calls                     1.6959059014
 POWELL| Reached  36% of maximal function calls                     1.6841507055
 POWELL| Reached  38% of maximal function calls                     1.6841507055
 POWELL| Reached  40% of maximal function calls                     1.6841507055
 POWELL| Reached  42% of maximal function calls                     1.6841507055
 POWELL| Reached  44% of maximal function calls                     1.6841507055
 POWELL| Reached  46% of maximal function calls                     1.6841507055
 POWELL| Reached  48% of maximal function calls                     1.6841507055
 POWELL| Reached  50% of maximal function calls                     1.6841507055
 POWELL| Reached  52% of maximal function calls                     1.6841507055
 POWELL| Reached  54% of maximal function calls                     1.6841507055
 POWELL| Reached  56% of maximal function calls                     1.6841507055
 POWELL| Reached  57% of maximal function calls                     1.6823972296
 POWELL| Reached  60% of maximal function calls                     1.6823972296
 POWELL| Reached  62% of maximal function calls                     1.6823972296
 POWELL| Reached  64% of maximal function calls                     1.6823972296
 POWELL| Reached  66% of maximal function calls                     1.6823972296
 POWELL| Reached  68% of maximal function calls                     1.6823972139
 POWELL| Reached  70% of maximal function calls                     1.6823820911
 POWELL| Reached  72% of maximal function calls                     1.6823820911
 POWELL| Reached  74% of maximal function calls                     1.6823820911
 POWELL| Reached  76% of maximal function calls                     1.6823820911
 POWELL| Reached  78% of maximal function calls                     1.6823820911
 POWELL| Reached  80% of maximal function calls                     1.6823820911
 POWELL| Reached  82% of maximal function calls                     1.6823820911
 POWELL| Reached  84% of maximal function calls                     1.6823820911
 POWELL| Reached  86% of maximal function calls                     1.6823820911
 POWELL| Reached  88% of maximal function calls                     1.6823820394
 POWELL| Reached  90% of maximal function calls                     1.6823820394
 POWELL| Reached  92% of maximal function calls                     1.6823694742
 POWELL| Reached  94% of maximal function calls                     1.6823694742
 POWELL| Reached  96% of maximal function calls                     1.6822901234
 POWELL| Reached  98% of maximal function calls                     1.6821757047
 POWELL| Reached 100% of maximal function calls                     1.6821704172
 POWELL| Reached 100% of maximal function calls                     1.6821704172
 POWELL| Exceeding maximum number of steps
 POWELL| Reached 100% of maximal function calls                     1.6821704172
 POWELL| RMS average of variables                                   0.0000469554
 POWELL| Start optimization  15 of total 100               rhobeg =   0.00015073
 POWELL| Inital value of function                                   1.6821704172
 POWELL| Reached   6% of maximal function calls                     1.6821704172
 POWELL| Reached   8% of maximal function calls                     1.6821704172
 POWELL| Reached  10% of maximal function calls                     1.6821704172
 POWELL| Reached  12% of maximal function calls                     1.6821704172
 POWELL| Reached  14% of maximal function calls                     1.6821704172
 POWELL| Reached  16% of maximal function calls                     1.6821704172
 POWELL| Reached  18% of maximal function calls                     1.6821704172
 POWELL| Reached  20% of maximal function calls                     1.6821704172
 POWELL| Reached  22% of maximal function calls                     1.6821704172
 POWELL| Reached  24% of maximal function calls                     1.6821704172
 POWELL| Reached  26% of maximal function calls                     1.6821704172
 POWELL| Reached  28% of maximal function calls                     1.6821704172
 POWELL| Reached  30% of maximal function calls                     1.6821704172
 POWELL| Reached  32% of maximal function calls                     1.6770611741
 POWELL| Reached  34% of maximal function calls                     1.6758125177
 POWELL| Reached  36% of maximal function calls                     1.6661478734
 POWELL| Reached  38% of maximal function calls                     1.6661478734
 POWELL| Reached  40% of maximal function calls                     1.6661478734
 POWELL| Reached  42% of maximal function calls                     1.6661478734
 POWELL| Reached  44% of maximal function calls                     1.6661478734
 POWELL| Reached  46% of maximal function calls                     1.6661478734
 POWELL| Reached  48% of maximal function calls                     1.6661478734
 POWELL| Reached  50% of maximal function calls                     1.6661478734
 POWELL| Reached  52% of maximal function calls                     1.6661478734
 POWELL| Reached  54% of maximal function calls                     1.6661478734
 POWELL| Reached  56% of maximal function calls                     1.6661478734
 POWELL| Reached  57% of maximal function calls                     1.6646577229
 POWELL| Reached  60% of maximal function calls                     1.6646577229
 POWELL| Reached  62% of maximal function calls                     1.6646577229
 POWELL| Reached  64% of maximal function calls                     1.6646577229
 POWELL| Reached  66% of maximal function calls                     1.6646577229
 POWELL| Reached  68% of maximal function calls                     1.6646577122
 POWELL| Reached  70% of maximal function calls                     1.6646448123
 POWELL| Reached  72% of maximal function calls                     1.6646448123
 POWELL| Reached  74% of maximal function calls                     1.6646448123
 POWELL| Reached  76% of maximal function calls                     1.6646448123
 POWELL| Reached  78% of maximal function calls                     1.6646448123
 POWELL| Reached  80% of maximal function calls                     1.6646448123
 POWELL| Reached  82% of maximal function calls                     1.6646448123
 POWELL| Reached  84% of maximal function calls                     1.6646448123
 POWELL| Reached  86% of maximal function calls                     1.6646448123
 POWELL| Reached  88% of maximal function calls                     1.6646448123
 POWELL| Reached  90% of maximal function calls                     1.6646448123
 POWELL| Reached  92% of maximal function calls                     1.6645753479
 POWELL| Reached  94% of maximal function calls                     1.6645753479
 POWELL| Reached  96% of maximal function calls                     1.6644782184
 POWELL| Reached  98% of maximal function calls                     1.6644782184
 POWELL| Reached 100% of maximal function calls                     1.6644782184
 POWELL| Reached 100% of maximal function calls                     1.6644782184
 POWELL| Exceeding maximum number of steps
 POWELL| Reached 100% of maximal function calls                     1.6644782184
 POWELL| RMS average of variables                                   0.0000460093
 POWELL| Start optimization  16 of total 100               rhobeg =   0.00014771
 POWELL| Inital value of function                                   1.6644782184
 POWELL| Reached   6% of maximal function calls                     1.6644782184
 POWELL| Reached   8% of maximal function calls                     1.6644782184
 POWELL| Reached  10% of maximal function calls                     1.6644782184
 POWELL| Reached  12% of maximal function calls                     1.6644782184
 POWELL| Reached  14% of maximal function calls                     1.6644782184
 POWELL| Reached  16% of maximal function calls                     1.6644782184
 POWELL| Reached  18% of maximal function calls                     1.6644782184
 POWELL| Reached  20% of maximal function calls                     1.6644782184
 POWELL| Reached  22% of maximal function calls                     1.6644782184
 POWELL| Reached  24% of maximal function calls                     1.6644782184
 POWELL| Reached  26% of maximal function calls                     1.6644782184
 POWELL| Reached  28% of maximal function calls                     1.6644782184
 POWELL| Reached  30% of maximal function calls                     1.6644782184
 POWELL| Reached  32% of maximal function calls                     1.6535686759
 POWELL| Reached  34% of maximal function calls                     1.6535686759
 POWELL| Reached  36% of maximal function calls                     1.6509821496
 POWELL| Reached  38% of maximal function calls                     1.6509821496
 POWELL| Reached  40% of maximal function calls                     1.6509821496
 POWELL| Reached  42% of maximal function calls                     1.6509821496
 POWELL| Reached  44% of maximal function calls                     1.6509821496
 POWELL| Reached  46% of maximal function calls                     1.6509821496
 POWELL| Reached  48% of maximal function calls                     1.6509821496
 POWELL| Reached  50% of maximal function calls                     1.6509821496
 POWELL| Reached  52% of maximal function calls                     1.6509821496
 POWELL| Reached  54% of maximal function calls                     1.6492689425
 POWELL| Reached  56% of maximal function calls                     1.6492689425
 POWELL| Reached  57% of maximal function calls                     1.6487343043
 POWELL| Reached  60% of maximal function calls                     1.6487343043
 POWELL| Reached  62% of maximal function calls                     1.6487343043
 POWELL| Reached  64% of maximal function calls                     1.6487343043
 POWELL| Reached  66% of maximal function calls                     1.6487343043
 POWELL| Reached  68% of maximal function calls                     1.6487343043
 POWELL| Reached  70% of maximal function calls                     1.6487343043
 POWELL| Reached  72% of maximal function calls                     1.6487343043
[...]
 POWELL| Reached  98% of maximal function calls                     0.8793423664
 POWELL| Reached 100% of maximal function calls                     0.8793423664
 POWELL| Reached 100% of maximal function calls                     0.8793410939
 POWELL| Exceeding maximum number of steps
 POWELL| Reached 100% of maximal function calls                     0.8793410939
 POWELL| RMS average of variables                                   0.0000087683
 POWELL| Start optimization  98 of total 100               rhobeg =   0.00002818
 POWELL| Inital value of function                                   0.8793410939
 POWELL| Reached   6% of maximal function calls                     0.8793410939
 POWELL| Reached   8% of maximal function calls                     0.8793410939
 POWELL| Reached  10% of maximal function calls                     0.8793410939
 POWELL| Reached  12% of maximal function calls                     0.8793410939
 POWELL| Reached  14% of maximal function calls                     0.8793410939
 POWELL| Reached  16% of maximal function calls                     0.8793410939
 POWELL| Reached  18% of maximal function calls                     0.8793410939
 POWELL| Reached  20% of maximal function calls                     0.8793410939
 POWELL| Reached  22% of maximal function calls                     0.8793410939
 POWELL| Reached  24% of maximal function calls                     0.8793410939
 POWELL| Reached  26% of maximal function calls                     0.8793410939
 POWELL| Reached  28% of maximal function calls                     0.8793410939
 POWELL| Reached  30% of maximal function calls                     0.8793410939
 POWELL| Reached  32% of maximal function calls                     0.8771296836
 POWELL| Reached  34% of maximal function calls                     0.8771296836
 POWELL| Reached  36% of maximal function calls                     0.8771296836
 POWELL| Reached  38% of maximal function calls                     0.8771296836
 POWELL| Reached  40% of maximal function calls                     0.8771296836
 POWELL| Reached  42% of maximal function calls                     0.8771296836
 POWELL| Reached  44% of maximal function calls                     0.8771296836
 POWELL| Reached  46% of maximal function calls                     0.8771296836
 POWELL| Reached  48% of maximal function calls                     0.8769139193
 POWELL| Reached  50% of maximal function calls                     0.8769139193
 POWELL| Reached  52% of maximal function calls                     0.8769139193
 POWELL| Reached  54% of maximal function calls                     0.8769139193
 POWELL| Reached  56% of maximal function calls                     0.8769139193
 POWELL| Reached  57% of maximal function calls                     0.8766846547
 POWELL| Reached  60% of maximal function calls                     0.8766846547
 POWELL| Reached  62% of maximal function calls                     0.8766846547
 POWELL| Reached  64% of maximal function calls                     0.8766846547
 POWELL| Reached  66% of maximal function calls                     0.8766846547
 POWELL| Reached  68% of maximal function calls                     0.8766846547
 POWELL| Reached  70% of maximal function calls                     0.8766846166
 POWELL| Reached  72% of maximal function calls                     0.8766830851
 POWELL| Reached  74% of maximal function calls                     0.8766830851
 POWELL| Reached  76% of maximal function calls                     0.8766830851
 POWELL| Reached  78% of maximal function calls                     0.8766830851
 POWELL| Reached  80% of maximal function calls                     0.8766804089
 POWELL| Reached  82% of maximal function calls                     0.8766804089
 POWELL| Reached  84% of maximal function calls                     0.8766804089
 POWELL| Reached  86% of maximal function calls                     0.8766777581
 POWELL| Reached  88% of maximal function calls                     0.8766777407
 POWELL| Reached  90% of maximal function calls                     0.8766777407
 POWELL| Reached  92% of maximal function calls                     0.8766776018
 POWELL| Reached  94% of maximal function calls                     0.8766776018
 POWELL| Reached  96% of maximal function calls                     0.8766766017
 POWELL| Reached  98% of maximal function calls                     0.8766755469
 POWELL| Reached 100% of maximal function calls                     0.8766755469
 POWELL| Reached 100% of maximal function calls                     0.8766755469
 POWELL| Exceeding maximum number of steps
 POWELL| Reached 100% of maximal function calls                     0.8766755469
 POWELL| RMS average of variables                                   0.0000086023
 POWELL| Start optimization  99 of total 100               rhobeg =   0.00002762
 POWELL| Inital value of function                                   0.8766755469
 POWELL| Reached   6% of maximal function calls                     0.8766755469
 POWELL| Reached   8% of maximal function calls                     0.8766755469
 POWELL| Reached  10% of maximal function calls                     0.8766755469
 POWELL| Reached  12% of maximal function calls                     0.8766755469
 POWELL| Reached  14% of maximal function calls                     0.8766755469
 POWELL| Reached  16% of maximal function calls                     0.8766755469
 POWELL| Reached  18% of maximal function calls                     0.8766755469
 POWELL| Reached  20% of maximal function calls                     0.8766755469
 POWELL| Reached  22% of maximal function calls                     0.8766755469
 POWELL| Reached  24% of maximal function calls                     0.8766755469
 POWELL| Reached  26% of maximal function calls                     0.8766755469
 POWELL| Reached  28% of maximal function calls                     0.8766755469
 POWELL| Reached  30% of maximal function calls                     0.8766755469
 POWELL| Reached  32% of maximal function calls                     0.8742891482
 POWELL| Reached  34% of maximal function calls                     0.8742891482
 POWELL| Reached  36% of maximal function calls                     0.8742891482
 POWELL| Reached  38% of maximal function calls                     0.8742891482
 POWELL| Reached  40% of maximal function calls                     0.8742891482
 POWELL| Reached  42% of maximal function calls                     0.8742891482
 POWELL| Reached  44% of maximal function calls                     0.8742891482
 POWELL| Reached  46% of maximal function calls                     0.8742891482
 POWELL| Reached  48% of maximal function calls                     0.8742891482
 POWELL| Reached  50% of maximal function calls                     0.8742891482
 POWELL| Reached  52% of maximal function calls                     0.8742891482
 POWELL| Reached  54% of maximal function calls                     0.8742891482
 POWELL| Reached  56% of maximal function calls                     0.8742891482
 POWELL| Reached  57% of maximal function calls                     0.8740780913
 POWELL| Reached  60% of maximal function calls                     0.8740780913
 POWELL| Reached  62% of maximal function calls                     0.8740780913
 POWELL| Reached  64% of maximal function calls                     0.8740780913
 POWELL| Reached  66% of maximal function calls                     0.8740780913
 POWELL| Reached  68% of maximal function calls                     0.8740780913
 POWELL| Reached  70% of maximal function calls                     0.8740780913
 POWELL| Reached  72% of maximal function calls                     0.8740780913
 POWELL| Reached  74% of maximal function calls                     0.8740780913
 POWELL| Reached  76% of maximal function calls                     0.8740780913
 POWELL| Reached  78% of maximal function calls                     0.8740780913
 POWELL| Reached  80% of maximal function calls                     0.8740780913
 POWELL| Reached  82% of maximal function calls                     0.8740780913
 POWELL| Reached  84% of maximal function calls                     0.8740780913
 POWELL| Reached  86% of maximal function calls                     0.8740780762
 POWELL| Reached  88% of maximal function calls                     0.8740780762
 POWELL| Reached  90% of maximal function calls                     0.8740764951
 POWELL| Reached  92% of maximal function calls                     0.8740764951
 POWELL| Reached  94% of maximal function calls                     0.8740764951
 POWELL| Reached  96% of maximal function calls                     0.8740764951
 POWELL| Reached  98% of maximal function calls                     0.8740763445
 POWELL| Reached 100% of maximal function calls                     0.8740763445
 POWELL| Reached 100% of maximal function calls                     0.8740756092
 POWELL| Exceeding maximum number of steps
 POWELL| Reached 100% of maximal function calls                     0.8740756092
 POWELL| RMS average of variables                                   0.0000084384
 POWELL| Start optimization 100 of total 100               rhobeg =   0.00002707
 POWELL| Inital value of function                                   0.8740756092
 POWELL| Reached   6% of maximal function calls                     0.8740756092
 POWELL| Reached   8% of maximal function calls                     0.8740756092
 POWELL| Reached  10% of maximal function calls                     0.8740756092
 POWELL| Reached  12% of maximal function calls                     0.8740756092
 POWELL| Reached  14% of maximal function calls                     0.8740756092
 POWELL| Reached  16% of maximal function calls                     0.8740756092
 POWELL| Reached  18% of maximal function calls                     0.8740756092
 POWELL| Reached  20% of maximal function calls                     0.8740756092
 POWELL| Reached  22% of maximal function calls                     0.8740756092
 POWELL| Reached  24% of maximal function calls                     0.8740756092
 POWELL| Reached  26% of maximal function calls                     0.8740756092
 POWELL| Reached  28% of maximal function calls                     0.8740756092
 POWELL| Reached  30% of maximal function calls                     0.8740756092
 POWELL| Reached  32% of maximal function calls                     0.8722740560
 POWELL| Reached  34% of maximal function calls                     0.8722740560
 POWELL| Reached  36% of maximal function calls                     0.8722740560
 POWELL| Reached  38% of maximal function calls                     0.8722740560
 POWELL| Reached  40% of maximal function calls                     0.8722740560
 POWELL| Reached  42% of maximal function calls                     0.8722740560
 POWELL| Reached  44% of maximal function calls                     0.8722740560
 POWELL| Reached  46% of maximal function calls                     0.8722740560
 POWELL| Reached  48% of maximal function calls                     0.8717922437
 POWELL| Reached  50% of maximal function calls                     0.8717922437
 POWELL| Reached  52% of maximal function calls                     0.8717922437
 POWELL| Reached  54% of maximal function calls                     0.8717922437
 POWELL| Reached  56% of maximal function calls                     0.8717922437
 POWELL| Reached  57% of maximal function calls                     0.8715762701
 POWELL| Reached  60% of maximal function calls                     0.8715762701
 POWELL| Reached  62% of maximal function calls                     0.8715762701
 POWELL| Reached  64% of maximal function calls                     0.8715762701
 POWELL| Reached  66% of maximal function calls                     0.8715762701
 POWELL| Reached  68% of maximal function calls                     0.8715762701
 POWELL| Reached  70% of maximal function calls                     0.8715762524
 POWELL| Reached  72% of maximal function calls                     0.8715747645
 POWELL| Reached  74% of maximal function calls                     0.8715747645
 POWELL| Reached  76% of maximal function calls                     0.8715747645
 POWELL| Reached  78% of maximal function calls                     0.8715747645
 POWELL| Reached  80% of maximal function calls                     0.8715747645
 POWELL| Reached  82% of maximal function calls                     0.8715737399
 POWELL| Reached  84% of maximal function calls                     0.8715730094
 POWELL| Reached  86% of maximal function calls                     0.8715730094
 POWELL| Reached  88% of maximal function calls                     0.8715728886
 POWELL| Reached  90% of maximal function calls                     0.8715728886
 POWELL| Reached  92% of maximal function calls                     0.8715727658
 POWELL| Reached  94% of maximal function calls                     0.8715718995
 POWELL| Reached  96% of maximal function calls                     0.8715718883
 POWELL| Reached  98% of maximal function calls                     0.8715718883
 POWELL| Reached 100% of maximal function calls                     0.8715718883
 POWELL| Reached 100% of maximal function calls                     0.8715718883
 POWELL| Exceeding maximum number of steps
 POWELL| Reached 100% of maximal function calls                     0.8715718883
 POWELL| RMS average of variables                                   0.0000082626
 POWELL| Number of function evaluations                                       50
 POWELL| Final value of function                                    0.8715718883

 POWELL| Final errors of target values

 Reference configuration          1               Method number                1
    L    N    Occupation      Eigenvalue [eV]           dE [eV]          dCharge 
    0    1          2.00       -47.0284871077 SC  -0.006014[ 7]    -0.000007[ X]
    0    2          2.00        -3.7283138468 VA   0.000829[57]     0.001359[ 3]
    0    3          0.00         1.4095961152 U1  -0.004651[ 1]     0.000774[ X]
    0    4          0.00         8.1668294535 U2  -0.023911[ X]     0.001725[ 0]
    1    1          6.00       -27.9415375380 SC   0.005336[ 4]     0.000009[ X]
    1    2          0.00        -1.3153144823 U1  -0.011099[27]     0.003044[ 0]
    1    3          0.00         2.7933454229 U2  -0.019033[ X]     0.002133[ 0]
    s-states N=    1                   Wavefunction at r=0:        -0.100461[ 0]
    s-states N=    2                   Wavefunction at r=0:        -0.060337[ 0]
    s-states N=    3                   Wavefunction at r=0:        -0.045700[ 0]
    s-states N=    4                   Wavefunction at r=0:         0.083696[ 0]

 Number of target values reached:                                       5 of  12



                             NORMAL TERMINATION OF     
                                                       
                           ****  ******  ****   ****   
                          **  ** ****** **  ** ******  
                          ******   **   **  ** **  **  
                          **  **   **    ****  **  **  


 -------------------------------------------------------------------------------
 -                                                                             -
 -                                DBCSR STATISTICS                             -
 -                                                                             -
 -------------------------------------------------------------------------------
 COUNTER                                    TOTAL       BLAS       SMM       ACC
 flops inhomo. stacks                           0       0.0%      0.0%      0.0%
 flops total                         0.000000E+00       0.0%      0.0%      0.0%
 flops max/rank                      0.000000E+00       0.0%      0.0%      0.0%
 matmuls inhomo. stacks                         0       0.0%      0.0%      0.0%
 matmuls total                                  0       0.0%      0.0%      0.0%
 number of processed stacks                     0       0.0%      0.0%      0.0%
 average stack size                                     0.0       0.0       0.0
 marketing flops                     0.000000E+00
 -------------------------------------------------------------------------------

 MEMORY| Estimated peak process memory [MiB]                                  47

 -------------------------------------------------------------------------------
 -                                                                             -
 -                           R E F E R E N C E S                               -
 -                                                                             -
 -------------------------------------------------------------------------------
 
 CP2K version 7.0 (Development Version), the CP2K developers group (2018).
 CP2K is freely available from https://www.cp2k.org/ .

 Schuett, Ole; Messmer, Peter; Hutter, Juerg; VandeVondele, Joost. 
 Electronic Structure Calculations on Graphics Processing Units, John Wiley & Sons, Ltd, 173-190 (2016). 
 GPU-Accelerated Sparse Matrix-Matrix Multiplication for Linear Scaling Density Functional Theory.
 http://dx.doi.org/10.1002/9781118670712.ch8


 Borstnik, U; VandeVondele, J; Weber, V; Hutter, J. 
 PARALLEL COMPUTING, 40 (5-6), 47-58 (2014). 
 Sparse matrix multiplication: The distributed block-compressed sparse
 row library.
 http://dx.doi.org/10.1016/j.parco.2014.03.012


 Hutter, J; Iannuzzi, M; Schiffmann, F; VandeVondele, J. 
 WILEY INTERDISCIPLINARY REVIEWS-COMPUTATIONAL MOLECULAR SCIENCE, 4 (1), 15-25 (2014). 
 CP2K: atomistic simulations of condensed matter systems.
 http://dx.doi.org/10.1002/wcms.1159


 Frigo, M; Johnson, SG. 
 PROCEEDINGS OF THE IEEE, 93 (2), 216-231 (2005). 
 The design and implementation of FFTW3.
 http://dx.doi.org/10.1109/JPROC.2004.840301


 Perdew, JP; Burke, K; Ernzerhof, M. 
 PHYSICAL REVIEW LETTERS, 77 (18), 3865-3868 (1996). 
 Generalized gradient approximation made simple.
 http://dx.doi.org/10.1103/PhysRevLett.77.3865


 -------------------------------------------------------------------------------
 -                                                                             -
 -                                T I M I N G                                  -
 -                                                                             -
 -------------------------------------------------------------------------------
 SUBROUTINE                       CALLS  ASD         SELF TIME        TOTAL TIME
                                MAXIMUM       AVERAGE  MAXIMUM  AVERAGE  MAXIMUM
 CP2K                                 1  1.0    0.003    0.003 1089.673 1089.673
 atom_code                            1  2.0    0.000    0.000 1089.669 1089.669
 atom_pseudo_opt                      1  3.0    7.468    7.468 1089.669 1089.669
 calculate_atom                    5567  4.0    0.019    0.019 1076.202 1076.202
 calculate_atom_restricted         5567  5.0  358.610  358.610 1076.183 1076.183
 calculate_atom_vxc_lda          217494  6.0  671.223  671.223  717.573  717.573
 xc_functional_eval              217494  7.0    0.518    0.518   46.099   46.099
 pbe_lda_eval                    217494  8.0   45.581   45.581   45.581   45.581
 -------------------------------------------------------------------------------

 The number of warnings for this run is : 0
 
 -------------------------------------------------------------------------------
  **** **** ******  **  PROGRAM ENDED AT                 2018-06-24 18:54:47.590
 ***** ** ***  *** **   PROGRAM RAN ON                                    tcpc01
 **    ****   ******    PROGRAM RAN BY                                    hutter
 ***** **    ** ** **   PROGRAM PROCESS ID                                  1228
  **** **  *******  **  PROGRAM STOPPED IN /data/hutter/pseudo/UZH2018/PBE/Ca/q1
                                           0
