
  **** **** ******  **  PROGRAM STARTED AT               2018-06-24 21:38:55.890
 ***** ** ***  *** **   PROGRAM STARTED ON                                tcpc01
 **    ****   ******    PROGRAM STARTED BY                                hutter
 ***** **    ** ** **   PROGRAM PROCESS ID                                  3491
  **** **  *******  **  PROGRAM STARTED IN /data/hutter/pseudo/UZH2018/PBE/V/q13

 CP2K| version string:                    CP2K version 7.0 (Development Version)
 CP2K| source code revision number:                                    svn:18485
 CP2K| cp2kflags: libint fftw3 libxc libderiv_max_am1=5 libint_max_am=6 spglib  
 CP2K| is freely available from                            https://www.cp2k.org/
 CP2K| Program compiled at                         Wed Jun 20 10:41:43 CEST 2018
 CP2K| Program compiled on                                                tcpc01
 CP2K| Program compiled for                                                local
 CP2K| Data directory path                        /data/hutter/CURRENT/cp2k/data
 CP2K| Input file name                                                     V.inp

 GLOBAL| Method name                                                        ATOM
 GLOBAL| Project name                                                    PROJECT
 GLOBAL| Preferred FFT library                                             FFTW3
 GLOBAL| Preferred diagonalization lib.                                       SL
 GLOBAL| Run type                                                   ENERGY_FORCE
 GLOBAL| All-to-all communication in single precision                          F
 GLOBAL| FFTs using library dependent lengths                                  F
 GLOBAL| Global print level                                               MEDIUM
 GLOBAL| Total number of message passing processes                             1
 GLOBAL| Number of threads for this process                                    1
 GLOBAL| This output is from process                                           0
 GLOBAL| CPU model name :  Intel(R) Xeon(R) CPU           X5570  @ 2.93GHz

 MEMORY| system memory details [Kb]
 MEMORY|                        rank 0           min           max       average
 MEMORY| MemTotal             37009584      37009584      37009584      37009584
 MEMORY| MemFree              32268100      32268100      32268100      32268100
 MEMORY| Buffers                300792        300792        300792        300792
 MEMORY| Cached                2032284       2032284       2032284       2032284
 MEMORY| Slab                   272508        272508        272508        272508
 MEMORY| SReclaimable           203736        203736        203736        203736
 MEMORY| MemLikelyFree        34804912      34804912      34804912      34804912


 *** Fundamental physical constants (SI units) ***

 *** Literature: B. J. Mohr and B. N. Taylor,
 ***             CODATA recommended values of the fundamental physical
 ***             constants: 2006, Web Version 5.1
 ***             http://physics.nist.gov/constants

 Speed of light in vacuum [m/s]                             2.99792458000000E+08
 Magnetic constant or permeability of vacuum [N/A**2]       1.25663706143592E-06
 Electric constant or permittivity of vacuum [F/m]          8.85418781762039E-12
 Planck constant (h) [J*s]                                  6.62606896000000E-34
 Planck constant (h-bar) [J*s]                              1.05457162825177E-34
 Elementary charge [C]                                      1.60217648700000E-19
 Electron mass [kg]                                         9.10938215000000E-31
 Electron g factor [ ]                                     -2.00231930436220E+00
 Proton mass [kg]                                           1.67262163700000E-27
 Fine-structure constant                                    7.29735253760000E-03
 Rydberg constant [1/m]                                     1.09737315685270E+07
 Avogadro constant [1/mol]                                  6.02214179000000E+23
 Boltzmann constant [J/K]                                   1.38065040000000E-23
 Atomic mass unit [kg]                                      1.66053878200000E-27
 Bohr radius [m]                                            5.29177208590000E-11

 *** Conversion factors ***

 [u] -> [a.u.]                                              1.82288848426455E+03
 [Angstrom] -> [Bohr] = [a.u.]                              1.88972613288564E+00
 [a.u.] = [Bohr] -> [Angstrom]                              5.29177208590000E-01
 [a.u.] -> [s]                                              2.41888432650478E-17
 [a.u.] -> [fs]                                             2.41888432650478E-02
 [a.u.] -> [J]                                              4.35974393937059E-18
 [a.u.] -> [N]                                              8.23872205491840E-08
 [a.u.] -> [K]                                              3.15774647902944E+05
 [a.u.] -> [kJ/mol]                                         2.62549961709828E+03
 [a.u.] -> [kcal/mol]                                       6.27509468713739E+02
 [a.u.] -> [Pa]                                             2.94210107994716E+13
 [a.u.] -> [bar]                                            2.94210107994716E+08
 [a.u.] -> [atm]                                            2.90362800883016E+08
 [a.u.] -> [eV]                                             2.72113838565563E+01
 [a.u.] -> [Hz]                                             6.57968392072181E+15
 [a.u.] -> [1/cm] (wave numbers)                            2.19474631370540E+05
 [a.u./Bohr**2] -> [1/cm]                                   5.14048714338585E+03
 
 DBCSR| Multiplication driver                                               BLAS
 DBCSR| Multrec recursion limit                                              512
 DBCSR| Multiplication stack size                                           1000
 DBCSR| Maximum elements for images                                    UNLIMITED
 DBCSR| Multiplicative factor virtual images                                   1
 DBCSR| Multiplication size stacks                                             3



                           ****  ******  ****   ****   
                          **  ** ****** **  ** ******  
                          ******   **   **  ** **  **  
                          **  **   **    ****  **  **  
                                                       
                             University of Zurich      
                                 2009 - 2015           
                                                       
                                 Version 0.0           
                                                                   


 Atomic Energy Calculation             Vanadium [V]          Atomic number:   23


 *******************************************************************************
 ************************** Calculate Reference States *************************
 *******************************************************************************

 METHOD    | Restricted Kohn-Sham Calculation
 METHOD    | Relativistic Calculation using Douglas-Kroll 3rd order
 FUNCTIONAL| ROUTINE=NEW
 FUNCTIONAL| PBE:
 FUNCTIONAL| J.P.Perdew, K.Burke, M.Ernzerhof, Phys. Rev. Letter, vol. 77, n 18,
 FUNCTIONAL|  pp. 3865-3868, (1996){spin unpolarized}                           

 Electronic structure
    Total number of core electrons                                          0.00
    Total number of valence electrons                                      23.00
    Total number of electrons                                              23.00
    Multiplicity                                                   not specified
    S      2.00  2.00  2.00  2.00
    P      6.00  6.00
    D      3.00


 *******************************************************************************
                  Iteration          Convergence                     Energy [au]
 *******************************************************************************
                          1         10.9789                    -924.064751303449
                          2         5.95367                    -913.801856367342
                          3         2.09485                    -943.980182131282
                          4         1.17067                    -947.693699677643
                          5        0.126803                    -948.848911463841
                          6        0.405401E-01                -948.869938446156
                          7        0.893874E-03                -948.872356778393
                          8        0.276242E-03                -948.872359057782
                          9        0.107632E-04                -948.872359188018
                         10        0.131752E-06                -948.872359188201
                         11        0.544803E-07                -948.872359188205

 Energy components [Hartree]           Total Energy ::         -948.872359188205
                                        Band Energy ::         -564.908460609806
                                     Kinetic Energy ::          980.082122520596
                                   Potential Energy ::        -1928.954481708802
                                      Virial (-V/T) ::            1.968155971204
                                        Core Energy ::        -1300.975292402251
                                          XC Energy ::          -45.228758653598
                                     Coulomb Energy ::          397.331691867643
                                        Confinement ::            0.000000254068

 Orbital energies  State     L     Occupation   Energy[a.u.]          Energy[eV]

                       1     0          2.000    -197.001503        -5360.683515
                       2     0          2.000     -22.132246         -602.249031
                       3     0          2.000      -2.579229          -70.184388
                       4     0          2.000      -0.172379           -4.690683
                       5     0          0.000       0.038730            1.053903
                       6     0          0.000       0.258878            7.044433

                       1     1          6.000     -18.477784         -502.806071
                       2     1          6.000      -1.617105          -44.003668
                       3     1          0.000      -0.051009           -1.388030
                       4     1          0.000       0.098038            2.667747

                       1     2          3.000      -0.189471           -5.155765
                       2     2          0.000       0.067182            1.828114
                       3     2          0.000       0.243082            6.614603

                       1     3          0.000       0.143670            3.909462


 Total Electron Density at R=0:                                     14815.944468

 *******************************************************************************
 ********************* Optimize Pseudopotential Parameters *********************
 *******************************************************************************

 POWELL| Start optimization procedure

 POWELL| Total number of parameters in optimization                           13

 POWELL| Initial errors of target values

 Reference configuration          1               Method number                1
    L    N    Occupation      Eigenvalue [eV]           dE [eV]          dCharge 
    0    1          2.00       -70.1987286218 SC  -0.014341[ 9]    -0.000058[ X]
    0    2          2.00        -4.6883719021 VA   0.002311[70]     0.001535[ 0]
    0    3          0.00         1.0507128159 U1  -0.003190[ 0]     0.000733[ X]
    0    4          0.00         7.0288622989 U2  -0.015571[ X]     0.001561[ 0]
    1    1          6.00       -43.9964337888 SC   0.007234[ 1]    -0.000093[ X]
    1    2          0.00        -1.3626748269 U1   0.025355[17]    -0.003222[ 0]
    1    3          0.00         2.6901716807 U2   0.022425[ X]    -0.001129[ 0]
    2    1          3.00        -5.1551158562 VA   0.000649[ 2]    -0.000132[ X]
    2    2          0.00         1.8307882552 U1   0.002674[ X]    -0.000166[ X]
    2    3          0.00         6.6246667768 U2   0.010064[ X]    -0.001187[ 0]
    3    1          0.00         3.9105853415 U1   0.001123[ X]    -0.000015[ X]

 Number of target values reached:                                      11 of  19

 POWELL| Start optimization   1 of total 100               rhobeg =   0.00010000
 POWELL| Inital value of function                                   6.6503000950
 POWELL| Reached   6% of maximal function calls                     6.6503000950
 POWELL| Reached   8% of maximal function calls                     6.6470510279
 POWELL| Reached  10% of maximal function calls                     6.6470510279
 POWELL| Reached  12% of maximal function calls                     6.6470510279
 POWELL| Reached  14% of maximal function calls                     6.6437872112
 POWELL| Reached  16% of maximal function calls                     6.6437872112
 POWELL| Reached  18% of maximal function calls                     6.6437872112
 POWELL| Reached  20% of maximal function calls                     6.6437872112
 POWELL| Reached  22% of maximal function calls                     6.6437872112
 POWELL| Reached  24% of maximal function calls                     6.6437872112
 POWELL| Reached  26% of maximal function calls                     6.6437872112
 POWELL| Reached  28% of maximal function calls                     6.6437872112
 POWELL| Reached  30% of maximal function calls                     6.6437872112
 POWELL| Reached  32% of maximal function calls                     6.6437872112
 POWELL| Reached  34% of maximal function calls                     6.6437872112
 POWELL| Reached  36% of maximal function calls                     6.6437872112
 POWELL| Reached  38% of maximal function calls                     6.6437872112
 POWELL| Reached  40% of maximal function calls                     6.6437872112
 POWELL| Reached  42% of maximal function calls                     6.6437872112
 POWELL| Reached  44% of maximal function calls                     6.6437872112
 POWELL| Reached  46% of maximal function calls                     6.6437872112
 POWELL| Reached  48% of maximal function calls                     6.6437872112
 POWELL| Reached  50% of maximal function calls                     6.6437872112
 POWELL| Reached  52% of maximal function calls                     6.6437872112
 POWELL| Reached  54% of maximal function calls                     6.6437872112
 POWELL| Reached  56% of maximal function calls                     6.6437872112
 POWELL| Reached  57% of maximal function calls                     6.6437444157
 POWELL| Reached  60% of maximal function calls                     6.6412549993
 POWELL| Reached  62% of maximal function calls                     6.6412549993
 POWELL| Reached  64% of maximal function calls                     6.6412549993
 POWELL| Reached  66% of maximal function calls                     6.6412115054
 POWELL| Reached  68% of maximal function calls                     6.6411534090
 POWELL| Reached  70% of maximal function calls                     6.6411534090
 POWELL| Reached  72% of maximal function calls                     6.6411534090
 POWELL| Reached  74% of maximal function calls                     6.6410393312
 POWELL| Reached  76% of maximal function calls                     6.6410338938
 POWELL| Reached  78% of maximal function calls                     6.6410338938
 POWELL| Reached  80% of maximal function calls                     6.6410321897
 POWELL| Reached  82% of maximal function calls                     6.6410320746
 POWELL| Reached  84% of maximal function calls                     6.6410319870
 POWELL| Reached  86% of maximal function calls                     6.6410316161
 POWELL| Reached  88% of maximal function calls                     6.6410316161
 POWELL| Reached  90% of maximal function calls                     6.6410316161
 POWELL| Reached  92% of maximal function calls                     6.6410316161
 POWELL| Reached  94% of maximal function calls                     6.6410315987
 POWELL| Reached  96% of maximal function calls                     6.6410315987
 POWELL| Reached  98% of maximal function calls                     6.6410315987
 POWELL| Reached 100% of maximal function calls                     6.6410315987
 POWELL| Reached 100% of maximal function calls                     6.6410305250
 POWELL| Exceeding maximum number of steps
 POWELL| Reached 100% of maximal function calls                     6.6410305250
 POWELL| RMS average of variables                                   0.0000308322
 POWELL| Start optimization   2 of total 100               rhobeg =   0.00009800
 POWELL| Inital value of function                                   6.6410305250
 POWELL| Reached   6% of maximal function calls                     6.6410305250
 POWELL| Reached   8% of maximal function calls                     6.6410305250
 POWELL| Reached  10% of maximal function calls                     6.6410305250
 POWELL| Reached  12% of maximal function calls                     6.6410305250
 POWELL| Reached  14% of maximal function calls                     6.6398953919
 POWELL| Reached  16% of maximal function calls                     6.6398953919
 POWELL| Reached  18% of maximal function calls                     6.6398953919
 POWELL| Reached  20% of maximal function calls                     6.6398953919
 POWELL| Reached  22% of maximal function calls                     6.6398953919
 POWELL| Reached  24% of maximal function calls                     6.6398953919
 POWELL| Reached  26% of maximal function calls                     6.6398953919
 POWELL| Reached  28% of maximal function calls                     6.6398953919
 POWELL| Reached  30% of maximal function calls                     6.6398953919
 POWELL| Reached  32% of maximal function calls                     6.6398953919
 POWELL| Reached  34% of maximal function calls                     6.6398953919
 POWELL| Reached  36% of maximal function calls                     6.6398953919
 POWELL| Reached  38% of maximal function calls                     6.6398953919
 POWELL| Reached  40% of maximal function calls                     6.6398953919
 POWELL| Reached  42% of maximal function calls                     6.6398953919
 POWELL| Reached  44% of maximal function calls                     6.6369312101
 POWELL| Reached  46% of maximal function calls                     6.6369312101
 POWELL| Reached  48% of maximal function calls                     6.6369312101
 POWELL| Reached  50% of maximal function calls                     6.6369312101
 POWELL| Reached  52% of maximal function calls                     6.6369312101
 POWELL| Reached  54% of maximal function calls                     6.6369312101
 POWELL| Reached  56% of maximal function calls                     6.6369312101
 POWELL| Reached  57% of maximal function calls                     6.6369312101
 POWELL| Reached  60% of maximal function calls                     6.6369312101
 POWELL| Reached  62% of maximal function calls                     6.6369312101
 POWELL| Reached  64% of maximal function calls                     6.6369312101
 POWELL| Reached  66% of maximal function calls                     6.6369312101
 POWELL| Reached  68% of maximal function calls                     6.6368391386
 POWELL| Reached  70% of maximal function calls                     6.6368340489
 POWELL| Reached  72% of maximal function calls                     6.6364014617
 POWELL| Reached  74% of maximal function calls                     6.6360926524
 POWELL| Reached  76% of maximal function calls                     6.6360884169
 POWELL| Reached  78% of maximal function calls                     6.6360884169
 POWELL| Reached  80% of maximal function calls                     6.6360879797
 POWELL| Reached  82% of maximal function calls                     6.6360879797
 POWELL| Reached  84% of maximal function calls                     6.6360839259
 POWELL| Reached  86% of maximal function calls                     6.6360827821
 POWELL| Reached  88% of maximal function calls                     6.6360800364
 POWELL| Reached  90% of maximal function calls                     6.6360675257
 POWELL| Reached  92% of maximal function calls                     6.6360675257
 POWELL| Reached  94% of maximal function calls                     6.6360675257
 POWELL| Reached  96% of maximal function calls                     6.6360675257
 POWELL| Reached  98% of maximal function calls                     6.6360675257
 POWELL| Reached 100% of maximal function calls                     6.6360675257
 POWELL| Reached 100% of maximal function calls                     6.6360675257
 POWELL| Exceeding maximum number of steps
 POWELL| Reached 100% of maximal function calls                     6.6360675257
 POWELL| RMS average of variables                                   0.0000272235
 POWELL| Start optimization   3 of total 100               rhobeg =   0.00009604
 POWELL| Inital value of function                                   6.6360675257
 POWELL| Reached   6% of maximal function calls                     6.6360675257
 POWELL| Reached   8% of maximal function calls                     6.6360675257
 POWELL| Reached  10% of maximal function calls                     6.6360675257
 POWELL| Reached  12% of maximal function calls                     6.6360675257
 POWELL| Reached  14% of maximal function calls                     6.6311708685
 POWELL| Reached  16% of maximal function calls                     6.6311708685
 POWELL| Reached  18% of maximal function calls                     6.6311708685
 POWELL| Reached  20% of maximal function calls                     6.6311708685
 POWELL| Reached  22% of maximal function calls                     6.6234545577
 POWELL| Reached  24% of maximal function calls                     6.6234545577
 POWELL| Reached  26% of maximal function calls                     6.6234545577
 POWELL| Reached  28% of maximal function calls                     6.6234545577
 POWELL| Reached  30% of maximal function calls                     6.6234545577
 POWELL| Reached  32% of maximal function calls                     6.6234545577
 POWELL| Reached  34% of maximal function calls                     6.6234545577
 POWELL| Reached  36% of maximal function calls                     6.6234545577
 POWELL| Reached  38% of maximal function calls                     6.6234545577
 POWELL| Reached  40% of maximal function calls                     6.6234545577
 POWELL| Reached  42% of maximal function calls                     6.6234545577
 POWELL| Reached  44% of maximal function calls                     6.6234545577
 POWELL| Reached  46% of maximal function calls                     6.6234545577
 POWELL| Reached  48% of maximal function calls                     6.6234545577
 POWELL| Reached  50% of maximal function calls                     6.6234545577
 POWELL| Reached  52% of maximal function calls                     6.6234545577
 POWELL| Reached  54% of maximal function calls                     6.6234545577
 POWELL| Reached  56% of maximal function calls                     6.6234545577
 POWELL| Reached  57% of maximal function calls                     6.6234545577
 POWELL| Reached  60% of maximal function calls                     6.6213690851
 POWELL| Reached  62% of maximal function calls                     6.6213690851
 POWELL| Reached  64% of maximal function calls                     6.6213690851
 POWELL| Reached  66% of maximal function calls                     6.6213289781
 POWELL| Reached  68% of maximal function calls                     6.6212764451
 POWELL| Reached  70% of maximal function calls                     6.6212764451
 POWELL| Reached  72% of maximal function calls                     6.6212764451
 POWELL| Reached  74% of maximal function calls                     6.6212711290
 POWELL| Reached  76% of maximal function calls                     6.6212705583
 POWELL| Reached  78% of maximal function calls                     6.6212687789
 POWELL| Reached  80% of maximal function calls                     6.6212673406
 POWELL| Reached  82% of maximal function calls                     6.6212673406
 POWELL| Reached  84% of maximal function calls                     6.6212670251
 POWELL| Reached  86% of maximal function calls                     6.6212669791
 POWELL| Reached  88% of maximal function calls                     6.6212669791
 POWELL| Reached  90% of maximal function calls                     6.6212669791
 POWELL| Reached  92% of maximal function calls                     6.6212669461
 POWELL| Reached  94% of maximal function calls                     6.6212669355
 POWELL| Reached  96% of maximal function calls                     6.6212669355
 POWELL| Reached  98% of maximal function calls                     6.6212669355
 POWELL| Reached 100% of maximal function calls                     6.6212654136
 POWELL| Reached 100% of maximal function calls                     6.6212654136
 POWELL| Exceeding maximum number of steps
 POWELL| Reached 100% of maximal function calls                     6.6212654136
 POWELL| RMS average of variables                                   0.0000269566
 POWELL| Start optimization   4 of total 100               rhobeg =   0.00009412
 POWELL| Inital value of function                                   6.6212654136
 POWELL| Reached   6% of maximal function calls                     6.6212654136
 POWELL| Reached   8% of maximal function calls                     6.6212654136
 POWELL| Reached  10% of maximal function calls                     6.6212654136
 POWELL| Reached  12% of maximal function calls                     6.6212654136
 POWELL| Reached  14% of maximal function calls                     6.6197072482
 POWELL| Reached  16% of maximal function calls                     6.6197072482
 POWELL| Reached  18% of maximal function calls                     6.6197072482
 POWELL| Reached  20% of maximal function calls                     6.6197072482
 POWELL| Reached  22% of maximal function calls                     6.6197072482
 POWELL| Reached  24% of maximal function calls                     6.6197072482
 POWELL| Reached  26% of maximal function calls                     6.6197072482
 POWELL| Reached  28% of maximal function calls                     6.6197072482
 POWELL| Reached  30% of maximal function calls                     6.6197072482
 POWELL| Reached  32% of maximal function calls                     6.6197072482
 POWELL| Reached  34% of maximal function calls                     6.6197072482
 POWELL| Reached  36% of maximal function calls                     6.6197072482
 POWELL| Reached  38% of maximal function calls                     6.6197072482
 POWELL| Reached  40% of maximal function calls                     6.6197072482
 POWELL| Reached  42% of maximal function calls                     6.6197072482
 POWELL| Reached  44% of maximal function calls                     6.6131664728
 POWELL| Reached  46% of maximal function calls                     6.6131664728
 POWELL| Reached  48% of maximal function calls                     6.6131664728
 POWELL| Reached  50% of maximal function calls                     6.6131664728
 POWELL| Reached  52% of maximal function calls                     6.6131664728
 POWELL| Reached  54% of maximal function calls                     6.6131664728
 POWELL| Reached  56% of maximal function calls                     6.6131664728
 POWELL| Reached  57% of maximal function calls                     6.6127379215
 POWELL| Reached  60% of maximal function calls                     6.6127379215
 POWELL| Reached  62% of maximal function calls                     6.6127379215
 POWELL| Reached  64% of maximal function calls                     6.6127379215
 POWELL| Reached  66% of maximal function calls                     6.6127379215
 POWELL| Reached  68% of maximal function calls                     6.6126439262
 POWELL| Reached  70% of maximal function calls                     6.6126358660
 POWELL| Reached  72% of maximal function calls                     6.6122834961
 POWELL| Reached  74% of maximal function calls                     6.6120361249
 POWELL| Reached  76% of maximal function calls                     6.6120323269
 POWELL| Reached  78% of maximal function calls                     6.6120323269
 POWELL| Reached  80% of maximal function calls                     6.6120323269
 POWELL| Reached  82% of maximal function calls                     6.6120323269
 POWELL| Reached  84% of maximal function calls                     6.6120302641
 POWELL| Reached  86% of maximal function calls                     6.6120302641
 POWELL| Reached  88% of maximal function calls                     6.6120302641
 POWELL| Reached  90% of maximal function calls                     6.6120302641
 POWELL| Reached  92% of maximal function calls                     6.6120284651
 POWELL| Reached  94% of maximal function calls                     6.6120284651
 POWELL| Reached  96% of maximal function calls                     6.6120273149
 POWELL| Reached  98% of maximal function calls                     6.6120273149
 POWELL| Reached 100% of maximal function calls                     6.6120199852
 POWELL| Reached 100% of maximal function calls                     6.6120199852
 POWELL| Exceeding maximum number of steps
 POWELL| Reached 100% of maximal function calls                     6.6120199852
 POWELL| RMS average of variables                                   0.0000287564
 POWELL| Start optimization   5 of total 100               rhobeg =   0.00009224
 POWELL| Inital value of function                                   6.6120199852
 POWELL| Reached   6% of maximal function calls                     6.6120199852
 POWELL| Reached   8% of maximal function calls                     6.6120199852
 POWELL| Reached  10% of maximal function calls                     6.6120199852
 POWELL| Reached  12% of maximal function calls                     6.6120199852
 POWELL| Reached  14% of maximal function calls                     6.6065953558
 POWELL| Reached  16% of maximal function calls                     6.6065953558
 POWELL| Reached  18% of maximal function calls                     6.6065953558
 POWELL| Reached  20% of maximal function calls                     6.6065953558
 POWELL| Reached  22% of maximal function calls                     6.6065953558
 POWELL| Reached  24% of maximal function calls                     6.6065953558
 POWELL| Reached  26% of maximal function calls                     6.6065953558
 POWELL| Reached  28% of maximal function calls                     6.6065953558
 POWELL| Reached  30% of maximal function calls                     6.6065953558
 POWELL| Reached  32% of maximal function calls                     6.6065953558
 POWELL| Reached  34% of maximal function calls                     6.6065953558
 POWELL| Reached  36% of maximal function calls                     6.6065953558
 POWELL| Reached  38% of maximal function calls                     6.6065953558
 POWELL| Reached  40% of maximal function calls                     6.6065953558
 POWELL| Reached  42% of maximal function calls                     6.6065953558
 POWELL| Reached  44% of maximal function calls                     6.6065953558
 POWELL| Reached  46% of maximal function calls                     6.6065953558
 POWELL| Reached  48% of maximal function calls                     6.6065953558
 POWELL| Reached  50% of maximal function calls                     6.6065953558
 POWELL| Reached  52% of maximal function calls                     6.6065953558
 POWELL| Reached  54% of maximal function calls                     6.6065953558
 POWELL| Reached  56% of maximal function calls                     6.6065953558
 POWELL| Reached  57% of maximal function calls                     6.6064326613
 POWELL| Reached  60% of maximal function calls                     6.6064326613
 POWELL| Reached  62% of maximal function calls                     6.6064326613
 POWELL| Reached  64% of maximal function calls                     6.6064017415
 POWELL| Reached  66% of maximal function calls                     6.6063710384
 POWELL| Reached  68% of maximal function calls                     6.6063710384
 POWELL| Reached  70% of maximal function calls                     6.6062302778
 POWELL| Reached  72% of maximal function calls                     6.6061379118
 POWELL| Reached  74% of maximal function calls                     6.6060092397
 POWELL| Reached  76% of maximal function calls                     6.6060092397
 POWELL| Reached  78% of maximal function calls                     6.6060060524
 POWELL| Reached  80% of maximal function calls                     6.6060060524
 POWELL| Reached  82% of maximal function calls                     6.6060056786
 POWELL| Reached  84% of maximal function calls                     6.6060056786
 POWELL| Reached  86% of maximal function calls                     6.6060056786
 POWELL| Reached  88% of maximal function calls                     6.6060056786
 POWELL| Reached  90% of maximal function calls                     6.6060056786
 POWELL| Reached  92% of maximal function calls                     6.6060052063
 POWELL| Reached  94% of maximal function calls                     6.6060050247
 POWELL| Reached  96% of maximal function calls                     6.6060044384
 POWELL| Reached  98% of maximal function calls                     6.6060042189
 POWELL| Reached 100% of maximal function calls                     6.6059965494
 POWELL| Reached 100% of maximal function calls                     6.6059938661
 POWELL| Exceeding maximum number of steps
 POWELL| Reached 100% of maximal function calls                     6.6059938661
 POWELL| RMS average of variables                                   0.0000283360
 POWELL| Start optimization   6 of total 100               rhobeg =   0.00009039
 POWELL| Inital value of function                                   6.6059938661
 POWELL| Reached   6% of maximal function calls                     6.6059938661
 POWELL| Reached   8% of maximal function calls                     6.6059938661
 POWELL| Reached  10% of maximal function calls                     6.6059938661
 POWELL| Reached  12% of maximal function calls                     6.6059938661
 POWELL| Reached  14% of maximal function calls                     6.6022293843
 POWELL| Reached  16% of maximal function calls                     6.6022293843
 POWELL| Reached  18% of maximal function calls                     6.6022293843
 POWELL| Reached  20% of maximal function calls                     6.6022293843
 POWELL| Reached  22% of maximal function calls                     6.6022293843
 POWELL| Reached  24% of maximal function calls                     6.6022293843
 POWELL| Reached  26% of maximal function calls                     6.6022293843
 POWELL| Reached  28% of maximal function calls                     6.6022293843
 POWELL| Reached  30% of maximal function calls                     6.6022293843
 POWELL| Reached  32% of maximal function calls                     6.6022293843
 POWELL| Reached  34% of maximal function calls                     6.6022293843
 POWELL| Reached  36% of maximal function calls                     6.6022293843
 POWELL| Reached  38% of maximal function calls                     6.6022293843
 POWELL| Reached  40% of maximal function calls                     6.6022293843
 POWELL| Reached  42% of maximal function calls                     6.6022293843
 POWELL| Reached  44% of maximal function calls                     6.6004735540
 POWELL| Reached  46% of maximal function calls                     6.6004735540
 POWELL| Reached  48% of maximal function calls                     6.6004735540
 POWELL| Reached  50% of maximal function calls                     6.6004735540
 POWELL| Reached  52% of maximal function calls                     6.6004735540
 POWELL| Reached  54% of maximal function calls                     6.6004735540
 POWELL| Reached  56% of maximal function calls                     6.6004735540
 POWELL| Reached  57% of maximal function calls                     6.6002732774
 POWELL| Reached  60% of maximal function calls                     6.6002732774
 POWELL| Reached  62% of maximal function calls                     6.6002732774
 POWELL| Reached  64% of maximal function calls                     6.6002732774
 POWELL| Reached  66% of maximal function calls                     6.6002732774
 POWELL| Reached  68% of maximal function calls                     6.6002233769
 POWELL| Reached  70% of maximal function calls                     6.6002194450
 POWELL| Reached  72% of maximal function calls                     6.5997898041
 POWELL| Reached  74% of maximal function calls                     6.5994873954
 POWELL| Reached  76% of maximal function calls                     6.5994836149
 POWELL| Reached  78% of maximal function calls                     6.5994836149
 POWELL| Reached  80% of maximal function calls                     6.5994836149
 POWELL| Reached  82% of maximal function calls                     6.5994836149
 POWELL| Reached  84% of maximal function calls                     6.5994810321
 POWELL| Reached  86% of maximal function calls                     6.5994810321
 POWELL| Reached  88% of maximal function calls                     6.5994727878
 POWELL| Reached  90% of maximal function calls                     6.5994727878
 POWELL| Reached  92% of maximal function calls                     6.5994719255
 POWELL| Reached  94% of maximal function calls                     6.5994719255
 POWELL| Reached  96% of maximal function calls                     6.5994710179
 POWELL| Reached  98% of maximal function calls                     6.5994710179
 POWELL| Reached 100% of maximal function calls                     6.5994616203
 POWELL| Reached 100% of maximal function calls                     6.5994585019
 POWELL| Exceeding maximum number of steps
 POWELL| Reached 100% of maximal function calls                     6.5994585019
 POWELL| RMS average of variables                                   0.0000276205
 POWELL| Start optimization   7 of total 100               rhobeg =   0.00008858
 POWELL| Inital value of function                                   6.5994585019
 POWELL| Reached   6% of maximal function calls                     6.5994585019
 POWELL| Reached   8% of maximal function calls                     6.5994585019
 POWELL| Reached  10% of maximal function calls                     6.5994585019
 POWELL| Reached  12% of maximal function calls                     6.5994585019
 POWELL| Reached  14% of maximal function calls                     6.5921341033
 POWELL| Reached  16% of maximal function calls                     6.5921341033
 POWELL| Reached  18% of maximal function calls                     6.5921341033
 POWELL| Reached  20% of maximal function calls                     6.5921341033
 POWELL| Reached  22% of maximal function calls                     6.5905635009
 POWELL| Reached  24% of maximal function calls                     6.5905635009
 POWELL| Reached  26% of maximal function calls                     6.5905635009
 POWELL| Reached  28% of maximal function calls                     6.5905635009
 POWELL| Reached  30% of maximal function calls                     6.5905635009
 POWELL| Reached  32% of maximal function calls                     6.5905635009
 POWELL| Reached  34% of maximal function calls                     6.5905635009
 POWELL| Reached  36% of maximal function calls                     6.5905635009
 POWELL| Reached  38% of maximal function calls                     6.5905635009
 POWELL| Reached  40% of maximal function calls                     6.5905635009
 POWELL| Reached  42% of maximal function calls                     6.5905635009
 POWELL| Reached  44% of maximal function calls                     6.5905635009
 POWELL| Reached  46% of maximal function calls                     6.5905635009
 POWELL| Reached  48% of maximal function calls                     6.5905635009
 POWELL| Reached  50% of maximal function calls                     6.5905635009
 POWELL| Reached  52% of maximal function calls                     6.5905635009
 POWELL| Reached  54% of maximal function calls                     6.5905635009
 POWELL| Reached  56% of maximal function calls                     6.5905635009
 POWELL| Reached  57% of maximal function calls                     6.5905635009
 POWELL| Reached  60% of maximal function calls                     6.5896455744
 POWELL| Reached  62% of maximal function calls                     6.5896455744
 POWELL| Reached  64% of maximal function calls                     6.5896455744
 POWELL| Reached  66% of maximal function calls                     6.5896219212
 POWELL| Reached  68% of maximal function calls                     6.5896029289
 POWELL| Reached  70% of maximal function calls                     6.5896029289
 POWELL| Reached  72% of maximal function calls                     6.5896029289
 POWELL| Reached  74% of maximal function calls                     6.5896012796
 POWELL| Reached  76% of maximal function calls                     6.5896011488
 POWELL| Reached  78% of maximal function calls                     6.5895937001
 POWELL| Reached  80% of maximal function calls                     6.5895882563
 POWELL| Reached  82% of maximal function calls                     6.5895882563
 POWELL| Reached  84% of maximal function calls                     6.5895879860
 POWELL| Reached  86% of maximal function calls                     6.5895879385
 POWELL| Reached  88% of maximal function calls                     6.5895879385
 POWELL| Reached  90% of maximal function calls                     6.5895879385
 POWELL| Reached  92% of maximal function calls                     6.5895878740
 POWELL| Reached  94% of maximal function calls                     6.5895878740
 POWELL| Reached  96% of maximal function calls                     6.5895878740
 POWELL| Reached  98% of maximal function calls                     6.5895878740
 POWELL| Reached 100% of maximal function calls                     6.5895878740
 POWELL| Reached 100% of maximal function calls                     6.5895878740
 POWELL| Exceeding maximum number of steps
 POWELL| Reached 100% of maximal function calls                     6.5895878740
 POWELL| RMS average of variables                                   0.0000248639
 POWELL| Start optimization   8 of total 100               rhobeg =   0.00008681
 POWELL| Inital value of function                                   6.5895878740
 POWELL| Reached   6% of maximal function calls                     6.5895878740
 POWELL| Reached   8% of maximal function calls                     6.5895878740
 POWELL| Reached  10% of maximal function calls                     6.5895878740
 POWELL| Reached  12% of maximal function calls                     6.5895878740
 POWELL| Reached  14% of maximal function calls                     6.5854359407
 POWELL| Reached  16% of maximal function calls                     6.5854359407
 POWELL| Reached  18% of maximal function calls                     6.5854359407
 POWELL| Reached  20% of maximal function calls                     6.5854359407
 POWELL| Reached  22% of maximal function calls                     6.5854359407
 POWELL| Reached  24% of maximal function calls                     6.5854359407
 POWELL| Reached  26% of maximal function calls                     6.5854359407
 POWELL| Reached  28% of maximal function calls                     6.5854359407
 POWELL| Reached  30% of maximal function calls                     6.5854359407
 POWELL| Reached  32% of maximal function calls                     6.5854359407
 POWELL| Reached  34% of maximal function calls                     6.5854359407
 POWELL| Reached  36% of maximal function calls                     6.5854359407
 POWELL| Reached  38% of maximal function calls                     6.5854359407
 POWELL| Reached  40% of maximal function calls                     6.5854359407
 POWELL| Reached  42% of maximal function calls                     6.5854359407
 POWELL| Reached  44% of maximal function calls                     6.5813568628
 POWELL| Reached  46% of maximal function calls                     6.5813568628
 POWELL| Reached  48% of maximal function calls                     6.5813568628
 POWELL| Reached  50% of maximal function calls                     6.5813568628
 POWELL| Reached  52% of maximal function calls                     6.5813568628
 POWELL| Reached  54% of maximal function calls                     6.5813568628
 POWELL| Reached  56% of maximal function calls                     6.5813568628
 POWELL| Reached  57% of maximal function calls                     6.5808581945
 POWELL| Reached  60% of maximal function calls                     6.5808581945
 POWELL| Reached  62% of maximal function calls                     6.5808581945
 POWELL| Reached  64% of maximal function calls                     6.5808581945
 POWELL| Reached  66% of maximal function calls                     6.5808581945
 POWELL| Reached  68% of maximal function calls                     6.5808059737
 POWELL| Reached  70% of maximal function calls                     6.5807992946
 POWELL| Reached  72% of maximal function calls                     6.5804412497
 POWELL| Reached  74% of maximal function calls                     6.5801877603
 POWELL| Reached  76% of maximal function calls                     6.5801844348
 POWELL| Reached  78% of maximal function calls                     6.5801844348
 POWELL| Reached  80% of maximal function calls                     6.5801844348
 POWELL| Reached  82% of maximal function calls                     6.5801844348
 POWELL| Reached  84% of maximal function calls                     6.5801828514
 POWELL| Reached  86% of maximal function calls                     6.5801828514
 POWELL| Reached  88% of maximal function calls                     6.5801752038
 POWELL| Reached  90% of maximal function calls                     6.5801752038
 POWELL| Reached  92% of maximal function calls                     6.5801747931
 POWELL| Reached  94% of maximal function calls                     6.5801747931
 POWELL| Reached  96% of maximal function calls                     6.5801747931
 POWELL| Reached  98% of maximal function calls                     6.5801747931
 POWELL| Reached 100% of maximal function calls                     6.5801664473
 POWELL| Reached 100% of maximal function calls                     6.5801664473
 POWELL| Exceeding maximum number of steps
 POWELL| Reached 100% of maximal function calls                     6.5801664473
 POWELL| RMS average of variables                                   0.0000265264
 POWELL| Start optimization   9 of total 100               rhobeg =   0.00008508
 POWELL| Inital value of function                                   6.5801664473
 POWELL| Reached   6% of maximal function calls                     6.5801664473
 POWELL| Reached   8% of maximal function calls                     6.5801664473
 POWELL| Reached  10% of maximal function calls                     6.5801664473
 POWELL| Reached  12% of maximal function calls                     6.5801664473
 POWELL| Reached  14% of maximal function calls                     6.5727652186
 POWELL| Reached  16% of maximal function calls                     6.5727652186
 POWELL| Reached  18% of maximal function calls                     6.5727652186
 POWELL| Reached  20% of maximal function calls                     6.5727652186
 POWELL| Reached  22% of maximal function calls                     6.5727652186
 POWELL| Reached  24% of maximal function calls                     6.5727652186
 POWELL| Reached  26% of maximal function calls                     6.5727652186
 POWELL| Reached  28% of maximal function calls                     6.5727652186
 POWELL| Reached  30% of maximal function calls                     6.5727652186
 POWELL| Reached  32% of maximal function calls                     6.5727652186
 POWELL| Reached  34% of maximal function calls                     6.5727652186
 POWELL| Reached  36% of maximal function calls                     6.5727652186
 POWELL| Reached  38% of maximal function calls                     6.5727652186
 POWELL| Reached  40% of maximal function calls                     6.5727652186
 POWELL| Reached  42% of maximal function calls                     6.5727652186
 POWELL| Reached  44% of maximal function calls                     6.5727652186
 POWELL| Reached  46% of maximal function calls                     6.5727652186
 POWELL| Reached  48% of maximal function calls                     6.5727652186
 POWELL| Reached  50% of maximal function calls                     6.5727652186
 POWELL| Reached  52% of maximal function calls                     6.5727652186
 POWELL| Reached  54% of maximal function calls                     6.5727652186
 POWELL| Reached  56% of maximal function calls                     6.5727652186
 POWELL| Reached  57% of maximal function calls                     6.5727120075
 POWELL| Reached  60% of maximal function calls                     6.5727120075
 POWELL| Reached  62% of maximal function calls                     6.5727120075
 POWELL| Reached  64% of maximal function calls                     6.5726974840
 POWELL| Reached  66% of maximal function calls                     6.5726857983
 POWELL| Reached  68% of maximal function calls                     6.5726857983
 POWELL| Reached  70% of maximal function calls                     6.5725191734
 POWELL| Reached  72% of maximal function calls                     6.5724073779
 POWELL| Reached  74% of maximal function calls                     6.5722854320
 POWELL| Reached  76% of maximal function calls                     6.5722854320
 POWELL| Reached  78% of maximal function calls                     6.5722846985
 POWELL| Reached  80% of maximal function calls                     6.5722841042
 POWELL| Reached  82% of maximal function calls                     6.5722841042
 POWELL| Reached  84% of maximal function calls                     6.5722841022
 POWELL| Reached  86% of maximal function calls                     6.5722840982
 POWELL| Reached  88% of maximal function calls                     6.5722840982
 POWELL| Reached  90% of maximal function calls                     6.5722840982
 POWELL| Reached  92% of maximal function calls                     6.5722840982
 POWELL| Reached  94% of maximal function calls                     6.5722840982
 POWELL| Reached  96% of maximal function calls                     6.5722840982
 POWELL| Reached  98% of maximal function calls                     6.5722840977
 POWELL| Reached 100% of maximal function calls                     6.5722840977
 POWELL| Reached 100% of maximal function calls                     6.5722840977
 POWELL| Exceeding maximum number of steps
 POWELL| Reached 100% of maximal function calls                     6.5722840977
 POWELL| RMS average of variables                                   0.0000261348
 POWELL| Start optimization  10 of total 100               rhobeg =   0.00008337
 POWELL| Inital value of function                                   6.5722840977
 POWELL| Reached   6% of maximal function calls                     6.5722840977
 POWELL| Reached   8% of maximal function calls                     6.5722840977
 POWELL| Reached  10% of maximal function calls                     6.5722840977
 POWELL| Reached  12% of maximal function calls                     6.5722840977
 POWELL| Reached  14% of maximal function calls                     6.5722840977
 POWELL| Reached  16% of maximal function calls                     6.5722840977
 POWELL| Reached  18% of maximal function calls                     6.5722840977
 POWELL| Reached  20% of maximal function calls                     6.5722840977
 POWELL| Reached  22% of maximal function calls                     6.5722840977
 POWELL| Reached  24% of maximal function calls                     6.5695624755
 POWELL| Reached  26% of maximal function calls                     6.5695624755
 POWELL| Reached  28% of maximal function calls                     6.5695624755
 POWELL| Reached  30% of maximal function calls                     6.5695624755
 POWELL| Reached  32% of maximal function calls                     6.5695624755
 POWELL| Reached  34% of maximal function calls                     6.5695624755
 POWELL| Reached  36% of maximal function calls                     6.5695624755
 POWELL| Reached  38% of maximal function calls                     6.5695624755
 POWELL| Reached  40% of maximal function calls                     6.5695624755
 POWELL| Reached  42% of maximal function calls                     6.5695624755
 POWELL| Reached  44% of maximal function calls                     6.5663658551
 POWELL| Reached  46% of maximal function calls                     6.5663658551
 POWELL| Reached  48% of maximal function calls                     6.5663658551
 POWELL| Reached  50% of maximal function calls                     6.5663658551
 POWELL| Reached  52% of maximal function calls                     6.5663658551
 POWELL| Reached  54% of maximal function calls                     6.5663658551
 POWELL| Reached  56% of maximal function calls                     6.5663658551
 POWELL| Reached  57% of maximal function calls                     6.5660740299
 POWELL| Reached  60% of maximal function calls                     6.5660740299
 POWELL| Reached  62% of maximal function calls                     6.5660740299
 POWELL| Reached  64% of maximal function calls                     6.5660740299
 POWELL| Reached  66% of maximal function calls                     6.5660740299
 POWELL| Reached  68% of maximal function calls                     6.5660389715
 POWELL| Reached  70% of maximal function calls                     6.5660349304
 POWELL| Reached  72% of maximal function calls                     6.5656215049
 POWELL| Reached  74% of maximal function calls                     6.5653287367
 POWELL| Reached  76% of maximal function calls                     6.5653226872
 POWELL| Reached  78% of maximal function calls                     6.5653221724
 POWELL| Reached  80% of maximal function calls                     6.5653221724
 POWELL| Reached  82% of maximal function calls                     6.5653221724
 POWELL| Reached  84% of maximal function calls                     6.5653221724
 POWELL| Reached  86% of maximal function calls                     6.5653212345
 POWELL| Reached  88% of maximal function calls                     6.5653212345
 POWELL| Reached  90% of maximal function calls                     6.5653164224
 POWELL| Reached  92% of maximal function calls                     6.5653164224
 POWELL| Reached  94% of maximal function calls                     6.5653164224
 POWELL| Reached  96% of maximal function calls                     6.5653090785
 POWELL| Reached  98% of maximal function calls                     6.5653087092
 POWELL| Reached 100% of maximal function calls                     6.5653087092
 POWELL| Reached 100% of maximal function calls                     6.5653017146
 POWELL| Exceeding maximum number of steps
 POWELL| Reached 100% of maximal function calls                     6.5653017146
 POWELL| RMS average of variables                                   0.0000254740
 POWELL| Start optimization  11 of total 100               rhobeg =   0.00008171
 POWELL| Inital value of function                                   6.5653017146
 POWELL| Reached   6% of maximal function calls                     6.5653017146
 POWELL| Reached   8% of maximal function calls                     6.5653017146
 POWELL| Reached  10% of maximal function calls                     6.5653017146
 POWELL| Reached  12% of maximal function calls                     6.5653017146
 POWELL| Reached  14% of maximal function calls                     6.5653017146
 POWELL| Reached  16% of maximal function calls                     6.5653017146
 POWELL| Reached  18% of maximal function calls                     6.5653017146
 POWELL| Reached  20% of maximal function calls                     6.5653017146
 POWELL| Reached  22% of maximal function calls                     6.5596332857
 POWELL| Reached  24% of maximal function calls                     6.5588049635
 POWELL| Reached  26% of maximal function calls                     6.5588049635
 POWELL| Reached  28% of maximal function calls                     6.5559835214
 POWELL| Reached  30% of maximal function calls                     6.5559835214
 POWELL| Reached  32% of maximal function calls                     6.5559835214
 POWELL| Reached  34% of maximal function calls                     6.5559835214
 POWELL| Reached  36% of maximal function calls                     6.5559835214
 POWELL| Reached  38% of maximal function calls                     6.5559835214
 POWELL| Reached  40% of maximal function calls                     6.5559835214
 POWELL| Reached  42% of maximal function calls                     6.5559835214
 POWELL| Reached  44% of maximal function calls                     6.5559835214
 POWELL| Reached  46% of maximal function calls                     6.5559835214
 POWELL| Reached  48% of maximal function calls                     6.5559835214
 POWELL| Reached  50% of maximal function calls                     6.5559835214
 POWELL| Reached  52% of maximal function calls                     6.5559835214
 POWELL| Reached  54% of maximal function calls                     6.5559835214
 POWELL| Reached  56% of maximal function calls                     6.5559835214
 POWELL| Reached  57% of maximal function calls                     6.5559835214
 POWELL| Reached  60% of maximal function calls                     6.5551681402
 POWELL| Reached  62% of maximal function calls                     6.5551681402
 POWELL| Reached  64% of maximal function calls                     6.5551681402
 POWELL| Reached  66% of maximal function calls                     6.5551427704
 POWELL| Reached  68% of maximal function calls                     6.5550808374
 POWELL| Reached  70% of maximal function calls                     6.5550807784
 POWELL| Reached  72% of maximal function calls                     6.5550807784
 POWELL| Reached  74% of maximal function calls                     6.5550777533
 POWELL| Reached  76% of maximal function calls                     6.5550770342
 POWELL| Reached  78% of maximal function calls                     6.5550638574
 POWELL| Reached  80% of maximal function calls                     6.5550537853
 POWELL| Reached  82% of maximal function calls                     6.5550537853
 POWELL| Reached  84% of maximal function calls                     6.5550530270
 POWELL| Reached  86% of maximal function calls                     6.5550524886
 POWELL| Reached  88% of maximal function calls                     6.5550524886
 POWELL| Reached  90% of maximal function calls                     6.5550524886
 POWELL| Reached  92% of maximal function calls                     6.5550524586
 POWELL| Reached  94% of maximal function calls                     6.5550524586
 POWELL| Reached  96% of maximal function calls                     6.5550524429
 POWELL| Reached  98% of maximal function calls                     6.5550524429
 POWELL| Reached 100% of maximal function calls                     6.5550519854
 POWELL| Reached 100% of maximal function calls                     6.5550519854
 POWELL| Exceeding maximum number of steps
 POWELL| Reached 100% of maximal function calls                     6.5550519854
 POWELL| RMS average of variables                                   0.0000229406
 POWELL| Start optimization  12 of total 100               rhobeg =   0.00008007
 POWELL| Inital value of function                                   6.5550519854
 POWELL| Reached   6% of maximal function calls                     6.5550519854
 POWELL| Reached   8% of maximal function calls                     6.5550519854
 POWELL| Reached  10% of maximal function calls                     6.5550519854
 POWELL| Reached  12% of maximal function calls                     6.5550519854
 POWELL| Reached  14% of maximal function calls                     6.5547171164
 POWELL| Reached  16% of maximal function calls                     6.5547171164
 POWELL| Reached  18% of maximal function calls                     6.5547171164
 POWELL| Reached  20% of maximal function calls                     6.5547171164
 POWELL| Reached  22% of maximal function calls                     6.5547171164
 POWELL| Reached  24% of maximal function calls                     6.5535865319
 POWELL| Reached  26% of maximal function calls                     6.5535865319
 POWELL| Reached  28% of maximal function calls                     6.5535865319
 POWELL| Reached  30% of maximal function calls                     6.5535865319
 POWELL| Reached  32% of maximal function calls                     6.5535865319
 POWELL| Reached  34% of maximal function calls                     6.5535865319
 POWELL| Reached  36% of maximal function calls                     6.5535865319
 POWELL| Reached  38% of maximal function calls                     6.5535865319
 POWELL| Reached  40% of maximal function calls                     6.5535865319
 POWELL| Reached  42% of maximal function calls                     6.5535865319
 POWELL| Reached  44% of maximal function calls                     6.5506636513
 POWELL| Reached  46% of maximal function calls                     6.5506636513
 POWELL| Reached  48% of maximal function calls                     6.5506636513
 POWELL| Reached  50% of maximal function calls                     6.5506636513
 POWELL| Reached  52% of maximal function calls                     6.5506636513
 POWELL| Reached  54% of maximal function calls                     6.5506636513
 POWELL| Reached  56% of maximal function calls                     6.5506636513
 POWELL| Reached  57% of maximal function calls                     6.5505010201
 POWELL| Reached  60% of maximal function calls                     6.5505010201
 POWELL| Reached  62% of maximal function calls                     6.5505010201
 POWELL| Reached  64% of maximal function calls                     6.5505010201
 POWELL| Reached  66% of maximal function calls                     6.5505010201
 POWELL| Reached  68% of maximal function calls                     6.5504403976
 POWELL| Reached  70% of maximal function calls                     6.5504362425
 POWELL| Reached  72% of maximal function calls                     6.5500646047
 POWELL| Reached  74% of maximal function calls                     6.5498023222
 POWELL| Reached  76% of maximal function calls                     6.5498000570
 POWELL| Reached  78% of maximal function calls                     6.5497981640
 POWELL| Reached  80% of maximal function calls                     6.5497898689
 POWELL| Reached  82% of maximal function calls                     6.5497898689
 POWELL| Reached  84% of maximal function calls                     6.5497768526
 POWELL| Reached  86% of maximal function calls                     6.5497768526
 POWELL| Reached  88% of maximal function calls                     6.5497768526
 POWELL| Reached  90% of maximal function calls                     6.5497768526
 POWELL| Reached  92% of maximal function calls                     6.5497744297
 POWELL| Reached  94% of maximal function calls                     6.5497744297
 POWELL| Reached  96% of maximal function calls                     6.5497744297
 POWELL| Reached  98% of maximal function calls                     6.5497728538
 POWELL| Reached 100% of maximal function calls                     6.5497686345
 POWELL| Reached 100% of maximal function calls                     6.5497592050
 POWELL| Exceeding maximum number of steps
 POWELL| Reached 100% of maximal function calls                     6.5497592050
 POWELL| RMS average of variables                                   0.0000244678
 POWELL| Start optimization  13 of total 100               rhobeg =   0.00007847
 POWELL| Inital value of function                                   6.5497592050
 POWELL| Reached   6% of maximal function calls                     6.5497592050
 POWELL| Reached   8% of maximal function calls                     6.5497592050
 POWELL| Reached  10% of maximal function calls                     6.5497592050
 POWELL| Reached  12% of maximal function calls                     6.5497592050
 POWELL| Reached  14% of maximal function calls                     6.5465633971
 POWELL| Reached  16% of maximal function calls                     6.5465633971
 POWELL| Reached  18% of maximal function calls                     6.5465633971
 POWELL| Reached  20% of maximal function calls                     6.5465633971
 POWELL| Reached  22% of maximal function calls                     6.5400240404
 POWELL| Reached  24% of maximal function calls                     6.5400240404
 POWELL| Reached  26% of maximal function calls                     6.5400240404
 POWELL| Reached  28% of maximal function calls                     6.5400240404
 POWELL| Reached  30% of maximal function calls                     6.5400240404
 POWELL| Reached  32% of maximal function calls                     6.5400240404
 POWELL| Reached  34% of maximal function calls                     6.5400240404
 POWELL| Reached  36% of maximal function calls                     6.5400240404
 POWELL| Reached  38% of maximal function calls                     6.5400240404
 POWELL| Reached  40% of maximal function calls                     6.5400240404
 POWELL| Reached  42% of maximal function calls                     6.5400240404
 POWELL| Reached  44% of maximal function calls                     6.5400240404
 POWELL| Reached  46% of maximal function calls                     6.5400240404
 POWELL| Reached  48% of maximal function calls                     6.5400240404
 POWELL| Reached  50% of maximal function calls                     6.5400240404
 POWELL| Reached  52% of maximal function calls                     6.5400240404
 POWELL| Reached  54% of maximal function calls                     6.5400240404
 POWELL| Reached  56% of maximal function calls                     6.5400240404
 POWELL| Reached  57% of maximal function calls                     6.5400240404
 POWELL| Reached  60% of maximal function calls                     6.5397791065
 POWELL| Reached  62% of maximal function calls                     6.5397791065
 POWELL| Reached  64% of maximal function calls                     6.5397791065
 POWELL| Reached  66% of maximal function calls                     6.5397655568
 POWELL| Reached  68% of maximal function calls                     6.5397389729
 POWELL| Reached  70% of maximal function calls                     6.5397389729
 POWELL| Reached  72% of maximal function calls                     6.5397389729
 POWELL| Reached  74% of maximal function calls                     6.5397356096
 POWELL| Reached  76% of maximal function calls                     6.5397352221
 POWELL| Reached  78% of maximal function calls                     6.5397260246
 POWELL| Reached  80% of maximal function calls                     6.5397191130
 POWELL| Reached  82% of maximal function calls                     6.5397191130
 POWELL| Reached  84% of maximal function calls                     6.5397184114
 POWELL| Reached  86% of maximal function calls                     6.5397179181
 POWELL| Reached  88% of maximal function calls                     6.5397179181
 POWELL| Reached  90% of maximal function calls                     6.5397179181
 POWELL| Reached  92% of maximal function calls                     6.5397178754
 POWELL| Reached  94% of maximal function calls                     6.5397178754
 POWELL| Reached  96% of maximal function calls                     6.5397178754
 POWELL| Reached  98% of maximal function calls                     6.5397178754
 POWELL| Reached 100% of maximal function calls                     6.5397178754
 POWELL| Reached 100% of maximal function calls                     6.5397178754
 POWELL| Exceeding maximum number of steps
 POWELL| Reached 100% of maximal function calls                     6.5397178754
 POWELL| RMS average of variables                                   0.0000220255
 POWELL| Start optimization  14 of total 100               rhobeg =   0.00007690
 POWELL| Inital value of function                                   6.5397178754
 POWELL| Reached   6% of maximal function calls                     6.5397178754
 POWELL| Reached   8% of maximal function calls                     6.5397178754
 POWELL| Reached  10% of maximal function calls                     6.5397178754
 POWELL| Reached  12% of maximal function calls                     6.5397178754
 POWELL| Reached  14% of maximal function calls                     6.5388713454
 POWELL| Reached  16% of maximal function calls                     6.5388713454
 POWELL| Reached  18% of maximal function calls                     6.5388713454
 POWELL| Reached  20% of maximal function calls                     6.5388713454
 POWELL| Reached  22% of maximal function calls                     6.5388713454
 POWELL| Reached  24% of maximal function calls                     6.5378862097
 POWELL| Reached  26% of maximal function calls                     6.5378862097
 POWELL| Reached  28% of maximal function calls                     6.5378862097
 POWELL| Reached  30% of maximal function calls                     6.5378862097
 POWELL| Reached  32% of maximal function calls                     6.5378862097
 POWELL| Reached  34% of maximal function calls                     6.5378862097
 POWELL| Reached  36% of maximal function calls                     6.5378862097
 POWELL| Reached  38% of maximal function calls                     6.5378862097
 POWELL| Reached  40% of maximal function calls                     6.5378862097
 POWELL| Reached  42% of maximal function calls                     6.5378862097
 POWELL| Reached  44% of maximal function calls                     6.5332239601
 POWELL| Reached  46% of maximal function calls                     6.5332239601
 POWELL| Reached  48% of maximal function calls                     6.5332239601
 POWELL| Reached  50% of maximal function calls                     6.5332239601
 POWELL| Reached  52% of maximal function calls                     6.5332239601
 POWELL| Reached  54% of maximal function calls                     6.5332239601
 POWELL| Reached  56% of maximal function calls                     6.5332239601
 POWELL| Reached  57% of maximal function calls                     6.5328293354
 POWELL| Reached  60% of maximal function calls                     6.5328293354
 POWELL| Reached  62% of maximal function calls                     6.5328293354
 POWELL| Reached  64% of maximal function calls                     6.5328293354
 POWELL| Reached  66% of maximal function calls                     6.5328293354
 POWELL| Reached  68% of maximal function calls                     6.5327680680
 POWELL| Reached  70% of maximal function calls                     6.5327618239
 POWELL| Reached  72% of maximal function calls                     6.5324477771
 POWELL| Reached  74% of maximal function calls                     6.5322249364
 POWELL| Reached  76% of maximal function calls                     6.5322234097
 POWELL| Reached  78% of maximal function calls                     6.5322219837
 POWELL| Reached  80% of maximal function calls                     6.5322143233
 POWELL| Reached  82% of maximal function calls                     6.5322143233
 POWELL| Reached  84% of maximal function calls                     6.5322016798
 POWELL| Reached  86% of maximal function calls                     6.5322016798
 POWELL| Reached  88% of maximal function calls                     6.5322016798
 POWELL| Reached  90% of maximal function calls                     6.5322016798
 POWELL| Reached  92% of maximal function calls                     6.5321996092
 POWELL| Reached  94% of maximal function calls                     6.5321996092
 POWELL| Reached  96% of maximal function calls                     6.5321995464
 POWELL| Reached  98% of maximal function calls                     6.5321981038
 POWELL| Reached 100% of maximal function calls                     6.5321930459
 POWELL| Reached 100% of maximal function calls                     6.5321863353
 POWELL| Exceeding maximum number of steps
 POWELL| Reached 100% of maximal function calls                     6.5321863353
 POWELL| RMS average of variables                                   0.0000234996
 POWELL| Start optimization  15 of total 100               rhobeg =   0.00007536
 POWELL| Inital value of function                                   6.5321863353
 POWELL| Reached   6% of maximal function calls                     6.5321863353
 POWELL| Reached   8% of maximal function calls                     6.5321863353
 POWELL| Reached  10% of maximal function calls                     6.5321863353
 POWELL| Reached  12% of maximal function calls                     6.5321863353
 POWELL| Reached  14% of maximal function calls                     6.5287133242
 POWELL| Reached  16% of maximal function calls                     6.5287133242
 POWELL| Reached  18% of maximal function calls                     6.5287133242
 POWELL| Reached  20% of maximal function calls                     6.5287133242
 POWELL| Reached  22% of maximal function calls                     6.5287133242
 POWELL| Reached  24% of maximal function calls                     6.5272253795
 POWELL| Reached  26% of maximal function calls                     6.5272253795
 POWELL| Reached  28% of maximal function calls                     6.5263912423
 POWELL| Reached  30% of maximal function calls                     6.5263912423
 POWELL| Reached  32% of maximal function calls                     6.5263912423
 POWELL| Reached  34% of maximal function calls                     6.5263912423
 POWELL| Reached  36% of maximal function calls                     6.5263912423
 POWELL| Reached  38% of maximal function calls                     6.5263912423
 POWELL| Reached  40% of maximal function calls                     6.5263912423
 POWELL| Reached  42% of maximal function calls                     6.5263912423
 POWELL| Reached  44% of maximal function calls                     6.5263912423
 POWELL| Reached  46% of maximal function calls                     6.5263912423
 POWELL| Reached  48% of maximal function calls                     6.5263912423
 POWELL| Reached  50% of maximal function calls                     6.5263912423
 POWELL| Reached  52% of maximal function calls                     6.5263912423
 POWELL| Reached  54% of maximal function calls                     6.5263912423
 POWELL| Reached  56% of maximal function calls                     6.5263912423
 POWELL| Reached  57% of maximal function calls                     6.5263912423
 POWELL| Reached  60% of maximal function calls                     6.5260764697
 POWELL| Reached  62% of maximal function calls                     6.5260764697
 POWELL| Reached  64% of maximal function calls                     6.5260764697
 POWELL| Reached  66% of maximal function calls                     6.5260619560
 POWELL| Reached  68% of maximal function calls                     6.5260346103
 POWELL| Reached  70% of maximal function calls                     6.5260346103
 POWELL| Reached  72% of maximal function calls                     6.5260346103
 POWELL| Reached  74% of maximal function calls                     6.5260285087
 POWELL| Reached  76% of maximal function calls                     6.5260279781
 POWELL| Reached  78% of maximal function calls                     6.5260279781
 POWELL| Reached  80% of maximal function calls                     6.5260271810
 POWELL| Reached  82% of maximal function calls                     6.5260270866
 POWELL| Reached  84% of maximal function calls                     6.5260270494
 POWELL| Reached  86% of maximal function calls                     6.5260262872
 POWELL| Reached  88% of maximal function calls                     6.5260254603
 POWELL| Reached  90% of maximal function calls                     6.5260254603
 POWELL| Reached  92% of maximal function calls                     6.5260254603
 POWELL| Reached  94% of maximal function calls                     6.5260254603
 POWELL| Reached  96% of maximal function calls                     6.5260254603
 POWELL| Reached  98% of maximal function calls                     6.5260254550
 POWELL| Reached 100% of maximal function calls                     6.5260254550
 POWELL| Reached 100% of maximal function calls                     6.5260253728
 POWELL| Exceeding maximum number of steps
 POWELL| Reached 100% of maximal function calls                     6.5260253728
 POWELL| RMS average of variables                                   0.0000211520
 POWELL| Start optimization  16 of total 100               rhobeg =   0.00007386
 POWELL| Inital value of function                                   6.5260253728
 POWELL| Reached   6% of maximal function calls                     6.5260253728
 POWELL| Reached   8% of maximal function calls                     6.5260253728
 POWELL| Reached  10% of maximal function calls                     6.5260253728
 POWELL| Reached  12% of maximal function calls                     6.5260253728
 POWELL| Reached  14% of maximal function calls                     6.5222923317
 POWELL| Reached  16% of maximal function calls                     6.5222923317
 POWELL| Reached  18% of maximal function calls                     6.5222923317
 POWELL| Reached  20% of maximal function calls                     6.5222923317
 POWELL| Reached  22% of maximal function calls                     6.5222923317
 POWELL| Reached  24% of maximal function calls                     6.5222923317
 POWELL| Reached  26% of maximal function calls                     6.5222923317
 POWELL| Reached  28% of maximal function calls                     6.5222923317
 POWELL| Reached  30% of maximal function calls                     6.5222923317
 POWELL| Reached  32% of maximal function calls                     6.5222923317
 POWELL| Reached  34% of maximal function calls                     6.5222923317
 POWELL| Reached  36% of maximal function calls                     6.5222923317
 POWELL| Reached  38% of maximal function calls                     6.5222923317
 POWELL| Reached  40% of maximal function calls                     6.5222923317
 POWELL| Reached  42% of maximal function calls                     6.5222923317
 POWELL| Reached  44% of maximal function calls                     6.5210191190
 POWELL| Reached  46% of maximal function calls                     6.5210191190
 POWELL| Reached  48% of maximal function calls                     6.5210191190
 POWELL| Reached  50% of maximal function calls                     6.5210191190
 POWELL| Reached  52% of maximal function calls                     6.5210191190
 POWELL| Reached  54% of maximal function calls                     6.5210191190
 POWELL| Reached  56% of maximal function calls                     6.5210191190
 POWELL| Reached  57% of maximal function calls                     6.5207535044
 POWELL| Reached  60% of maximal function calls                     6.5207535044
[...]
 POWELL| Reached 100% of maximal function calls                     5.1022575854
 POWELL| RMS average of variables                                   0.0000043932
 POWELL| Start optimization  98 of total 100               rhobeg =   0.00001409
 POWELL| Inital value of function                                   5.1022575854
 POWELL| Reached   6% of maximal function calls                     5.1022575854
 POWELL| Reached   8% of maximal function calls                     5.1022575854
 POWELL| Reached  10% of maximal function calls                     5.1022575854
 POWELL| Reached  12% of maximal function calls                     5.1022575854
 POWELL| Reached  14% of maximal function calls                     5.1002468684
 POWELL| Reached  16% of maximal function calls                     5.1002468684
 POWELL| Reached  18% of maximal function calls                     5.1002468684
 POWELL| Reached  20% of maximal function calls                     5.1002468684
 POWELL| Reached  22% of maximal function calls                     5.0968025806
 POWELL| Reached  24% of maximal function calls                     5.0968025806
 POWELL| Reached  26% of maximal function calls                     5.0968025806
 POWELL| Reached  28% of maximal function calls                     5.0968025806
 POWELL| Reached  30% of maximal function calls                     5.0968025806
 POWELL| Reached  32% of maximal function calls                     5.0968025806
 POWELL| Reached  34% of maximal function calls                     5.0968025806
 POWELL| Reached  36% of maximal function calls                     5.0968025806
 POWELL| Reached  38% of maximal function calls                     5.0968025806
 POWELL| Reached  40% of maximal function calls                     5.0968025806
 POWELL| Reached  42% of maximal function calls                     5.0968025806
 POWELL| Reached  44% of maximal function calls                     5.0968025806
 POWELL| Reached  46% of maximal function calls                     5.0968025806
 POWELL| Reached  48% of maximal function calls                     5.0968025806
 POWELL| Reached  50% of maximal function calls                     5.0968025806
 POWELL| Reached  52% of maximal function calls                     5.0968025806
 POWELL| Reached  54% of maximal function calls                     5.0968025806
 POWELL| Reached  56% of maximal function calls                     5.0968025806
 POWELL| Reached  57% of maximal function calls                     5.0963026948
 POWELL| Reached  60% of maximal function calls                     5.0963026948
 POWELL| Reached  62% of maximal function calls                     5.0963026948
 POWELL| Reached  64% of maximal function calls                     5.0963026948
 POWELL| Reached  66% of maximal function calls                     5.0963026948
 POWELL| Reached  68% of maximal function calls                     5.0962837355
 POWELL| Reached  70% of maximal function calls                     5.0962784989
 POWELL| Reached  72% of maximal function calls                     5.0962406659
 POWELL| Reached  74% of maximal function calls                     5.0962101325
 POWELL| Reached  76% of maximal function calls                     5.0962095758
 POWELL| Reached  78% of maximal function calls                     5.0962095758
 POWELL| Reached  80% of maximal function calls                     5.0962095758
 POWELL| Reached  82% of maximal function calls                     5.0962095758
 POWELL| Reached  84% of maximal function calls                     5.0962095462
 POWELL| Reached  86% of maximal function calls                     5.0962095462
 POWELL| Reached  88% of maximal function calls                     5.0962095462
 POWELL| Reached  90% of maximal function calls                     5.0962095462
 POWELL| Reached  92% of maximal function calls                     5.0962095462
 POWELL| Reached  94% of maximal function calls                     5.0962094989
 POWELL| Reached  96% of maximal function calls                     5.0962094983
 POWELL| Reached  98% of maximal function calls                     5.0962094983
 POWELL| Reached 100% of maximal function calls                     5.0962091651
 POWELL| Reached 100% of maximal function calls                     5.0962078811
 POWELL| Exceeding maximum number of steps
 POWELL| Reached 100% of maximal function calls                     5.0962078811
 POWELL| RMS average of variables                                   0.0000043052
 POWELL| Start optimization  99 of total 100               rhobeg =   0.00001381
 POWELL| Inital value of function                                   5.0962078811
 POWELL| Reached   6% of maximal function calls                     5.0962078811
 POWELL| Reached   8% of maximal function calls                     5.0962078811
 POWELL| Reached  10% of maximal function calls                     5.0962078811
 POWELL| Reached  12% of maximal function calls                     5.0962078811
 POWELL| Reached  14% of maximal function calls                     5.0944359314
 POWELL| Reached  16% of maximal function calls                     5.0944359314
 POWELL| Reached  18% of maximal function calls                     5.0944359314
 POWELL| Reached  20% of maximal function calls                     5.0944359314
 POWELL| Reached  22% of maximal function calls                     5.0917777719
 POWELL| Reached  24% of maximal function calls                     5.0917777719
 POWELL| Reached  26% of maximal function calls                     5.0917777719
 POWELL| Reached  28% of maximal function calls                     5.0917777719
 POWELL| Reached  30% of maximal function calls                     5.0917777719
 POWELL| Reached  32% of maximal function calls                     5.0917777719
 POWELL| Reached  34% of maximal function calls                     5.0917777719
 POWELL| Reached  36% of maximal function calls                     5.0917777719
 POWELL| Reached  38% of maximal function calls                     5.0917777719
 POWELL| Reached  40% of maximal function calls                     5.0917777719
 POWELL| Reached  42% of maximal function calls                     5.0917777719
 POWELL| Reached  44% of maximal function calls                     5.0917777719
 POWELL| Reached  46% of maximal function calls                     5.0917777719
 POWELL| Reached  48% of maximal function calls                     5.0917777719
 POWELL| Reached  50% of maximal function calls                     5.0917777719
 POWELL| Reached  52% of maximal function calls                     5.0917777719
 POWELL| Reached  54% of maximal function calls                     5.0917777719
 POWELL| Reached  56% of maximal function calls                     5.0917777719
 POWELL| Reached  57% of maximal function calls                     5.0913785956
 POWELL| Reached  60% of maximal function calls                     5.0913785956
 POWELL| Reached  62% of maximal function calls                     5.0913785956
 POWELL| Reached  64% of maximal function calls                     5.0913770840
 POWELL| Reached  66% of maximal function calls                     5.0913487512
 POWELL| Reached  68% of maximal function calls                     5.0913487512
 POWELL| Reached  70% of maximal function calls                     5.0913470878
 POWELL| Reached  72% of maximal function calls                     5.0913431421
 POWELL| Reached  74% of maximal function calls                     5.0913334849
 POWELL| Reached  76% of maximal function calls                     5.0913314041
 POWELL| Reached  78% of maximal function calls                     5.0913296478
 POWELL| Reached  80% of maximal function calls                     5.0913296478
 POWELL| Reached  82% of maximal function calls                     5.0913295929
 POWELL| Reached  84% of maximal function calls                     5.0913295929
 POWELL| Reached  86% of maximal function calls                     5.0913295929
 POWELL| Reached  88% of maximal function calls                     5.0913295929
 POWELL| Reached  90% of maximal function calls                     5.0913295808
 POWELL| Reached  92% of maximal function calls                     5.0913295731
 POWELL| Reached  94% of maximal function calls                     5.0913295731
 POWELL| Reached  96% of maximal function calls                     5.0913295638
 POWELL| Reached  98% of maximal function calls                     5.0913295638
 POWELL| Reached 100% of maximal function calls                     5.0913295638
 POWELL| Reached 100% of maximal function calls                     5.0913295638
 POWELL| Exceeding maximum number of steps
 POWELL| Reached 100% of maximal function calls                     5.0913295638
 POWELL| RMS average of variables                                   0.0000042420
 POWELL| Start optimization 100 of total 100               rhobeg =   0.00001353
 POWELL| Inital value of function                                   5.0913295638
 POWELL| Reached   6% of maximal function calls                     5.0913295638
 POWELL| Reached   8% of maximal function calls                     5.0913295638
 POWELL| Reached  10% of maximal function calls                     5.0913295638
 POWELL| Reached  12% of maximal function calls                     5.0913295638
 POWELL| Reached  14% of maximal function calls                     5.0897734296
 POWELL| Reached  16% of maximal function calls                     5.0897734296
 POWELL| Reached  18% of maximal function calls                     5.0897734296
 POWELL| Reached  20% of maximal function calls                     5.0897734296
 POWELL| Reached  22% of maximal function calls                     5.0878375567
 POWELL| Reached  24% of maximal function calls                     5.0878375567
 POWELL| Reached  26% of maximal function calls                     5.0878375567
 POWELL| Reached  28% of maximal function calls                     5.0878375567
 POWELL| Reached  30% of maximal function calls                     5.0878375567
 POWELL| Reached  32% of maximal function calls                     5.0878375567
 POWELL| Reached  34% of maximal function calls                     5.0878375567
 POWELL| Reached  36% of maximal function calls                     5.0878375567
 POWELL| Reached  38% of maximal function calls                     5.0844702541
 POWELL| Reached  40% of maximal function calls                     5.0844702541
 POWELL| Reached  42% of maximal function calls                     5.0844702541
 POWELL| Reached  44% of maximal function calls                     5.0844702541
 POWELL| Reached  46% of maximal function calls                     5.0844702541
 POWELL| Reached  48% of maximal function calls                     5.0844702541
 POWELL| Reached  50% of maximal function calls                     5.0844702541
 POWELL| Reached  52% of maximal function calls                     5.0844702541
 POWELL| Reached  54% of maximal function calls                     5.0844702541
 POWELL| Reached  56% of maximal function calls                     5.0844702541
 POWELL| Reached  57% of maximal function calls                     5.0841759302
 POWELL| Reached  60% of maximal function calls                     5.0841759302
 POWELL| Reached  62% of maximal function calls                     5.0841759302
 POWELL| Reached  64% of maximal function calls                     5.0841759302
 POWELL| Reached  66% of maximal function calls                     5.0841529681
 POWELL| Reached  68% of maximal function calls                     5.0841186071
 POWELL| Reached  70% of maximal function calls                     5.0840463726
 POWELL| Reached  72% of maximal function calls                     5.0839926158
 POWELL| Reached  74% of maximal function calls                     5.0839916833
 POWELL| Reached  76% of maximal function calls                     5.0839913979
 POWELL| Reached  78% of maximal function calls                     5.0839907612
 POWELL| Reached  80% of maximal function calls                     5.0839907612
 POWELL| Reached  82% of maximal function calls                     5.0839907612
 POWELL| Reached  84% of maximal function calls                     5.0839907612
 POWELL| Reached  86% of maximal function calls                     5.0839907036
 POWELL| Reached  88% of maximal function calls                     5.0839907036
 POWELL| Reached  90% of maximal function calls                     5.0839907036
 POWELL| Reached  92% of maximal function calls                     5.0839907036
 POWELL| Reached  94% of maximal function calls                     5.0839898492
 POWELL| Reached  96% of maximal function calls                     5.0839897378
 POWELL| Reached  98% of maximal function calls                     5.0839894240
 POWELL| Reached 100% of maximal function calls                     5.0839894240
 POWELL| Reached 100% of maximal function calls                     5.0839853613
 POWELL| Exceeding maximum number of steps
 POWELL| Reached 100% of maximal function calls                     5.0839853613
 POWELL| RMS average of variables                                   0.0000041581
 POWELL| Number of function evaluations                                       50
 POWELL| Final value of function                                    5.0839853613

 POWELL| Final errors of target values

 Reference configuration          1               Method number                1
    L    N    Occupation      Eigenvalue [eV]           dE [eV]          dCharge 
    0    1          2.00       -70.1979365643 SC  -0.013549[10]    -0.000057[ X]
    0    2          2.00        -4.6887454930 VA   0.001938[61]     0.001622[ 0]
    0    3          0.00         1.0505663174 U1  -0.003337[ 0]     0.000746[ X]
    0    4          0.00         7.0283548453 U2  -0.016078[ X]     0.001577[ 0]
    1    1          6.00       -43.9965782070 SC   0.007090[ 2]    -0.000092[ X]
    1    2          0.00        -1.3619601835 U1   0.026070[24]    -0.003262[ 0]
    1    3          0.00         2.6906527196 U2   0.022906[ X]    -0.001133[ 0]
    2    1          3.00        -5.1551013363 VA   0.000663[ 3]    -0.000089[ X]
    2    2          0.00         1.8309721930 U1   0.002858[ X]    -0.000176[ X]
    2    3          0.00         6.6248643187 U2   0.010261[ X]    -0.001186[ 0]
    3    1          0.00         3.9107884144 U1   0.001326[ X]    -0.000015[ X]
    s-states N=    1                   Wavefunction at r=0:        -0.032077[ 0]
    s-states N=    2                   Wavefunction at r=0:        -0.158279[ 0]
    s-states N=    3                   Wavefunction at r=0:         0.099100[ 0]
    s-states N=    4                   Wavefunction at r=0:        -0.160943[ 0]

 Number of target values reached:                                      11 of  19



                             NORMAL TERMINATION OF     
                                                       
                           ****  ******  ****   ****   
                          **  ** ****** **  ** ******  
                          ******   **   **  ** **  **  
                          **  **   **    ****  **  **  


 -------------------------------------------------------------------------------
 -                                                                             -
 -                                DBCSR STATISTICS                             -
 -                                                                             -
 -------------------------------------------------------------------------------
 COUNTER                                    TOTAL       BLAS       SMM       ACC
 flops inhomo. stacks                           0       0.0%      0.0%      0.0%
 flops total                         0.000000E+00       0.0%      0.0%      0.0%
 flops max/rank                      0.000000E+00       0.0%      0.0%      0.0%
 matmuls inhomo. stacks                         0       0.0%      0.0%      0.0%
 matmuls total                                  0       0.0%      0.0%      0.0%
 number of processed stacks                     0       0.0%      0.0%      0.0%
 average stack size                                     0.0       0.0       0.0
 marketing flops                     0.000000E+00
 -------------------------------------------------------------------------------

 MEMORY| Estimated peak process memory [MiB]                                  49

 -------------------------------------------------------------------------------
 -                                                                             -
 -                           R E F E R E N C E S                               -
 -                                                                             -
 -------------------------------------------------------------------------------
 
 CP2K version 7.0 (Development Version), the CP2K developers group (2018).
 CP2K is freely available from https://www.cp2k.org/ .

 Schuett, Ole; Messmer, Peter; Hutter, Juerg; VandeVondele, Joost. 
 Electronic Structure Calculations on Graphics Processing Units, John Wiley & Sons, Ltd, 173-190 (2016). 
 GPU-Accelerated Sparse Matrix-Matrix Multiplication for Linear Scaling Density Functional Theory.
 http://dx.doi.org/10.1002/9781118670712.ch8


 Borstnik, U; VandeVondele, J; Weber, V; Hutter, J. 
 PARALLEL COMPUTING, 40 (5-6), 47-58 (2014). 
 Sparse matrix multiplication: The distributed block-compressed sparse
 row library.
 http://dx.doi.org/10.1016/j.parco.2014.03.012


 Hutter, J; Iannuzzi, M; Schiffmann, F; VandeVondele, J. 
 WILEY INTERDISCIPLINARY REVIEWS-COMPUTATIONAL MOLECULAR SCIENCE, 4 (1), 15-25 (2014). 
 CP2K: atomistic simulations of condensed matter systems.
 http://dx.doi.org/10.1002/wcms.1159


 Frigo, M; Johnson, SG. 
 PROCEEDINGS OF THE IEEE, 93 (2), 216-231 (2005). 
 The design and implementation of FFTW3.
 http://dx.doi.org/10.1109/JPROC.2004.840301


 Perdew, JP; Burke, K; Ernzerhof, M. 
 PHYSICAL REVIEW LETTERS, 77 (18), 3865-3868 (1996). 
 Generalized gradient approximation made simple.
 http://dx.doi.org/10.1103/PhysRevLett.77.3865


 -------------------------------------------------------------------------------
 -                                                                             -
 -                                T I M I N G                                  -
 -                                                                             -
 -------------------------------------------------------------------------------
 SUBROUTINE                       CALLS  ASD         SELF TIME        TOTAL TIME
                                MAXIMUM       AVERAGE  MAXIMUM  AVERAGE  MAXIMUM
 CP2K                                 1  1.0    0.002    0.002 1134.682 1134.682
 atom_code                            1  2.0    0.000    0.000 1134.679 1134.679
 atom_pseudo_opt                      1  3.0    7.849    7.849 1134.679 1134.679
 calculate_atom                    5571  4.0    0.016    0.016 1121.497 1121.497
 calculate_atom_restricted         5571  5.0  391.151  391.151 1121.481 1121.481
 calculate_atom_vxc_lda          229649  6.0  683.057  683.057  730.330  730.330
 xc_functional_eval              229649  7.0    0.522    0.522   47.059   47.059
 pbe_lda_eval                    229649  8.0   46.537   46.537   46.537   46.537
 -------------------------------------------------------------------------------

 The number of warnings for this run is : 0
 
 -------------------------------------------------------------------------------
  **** **** ******  **  PROGRAM ENDED AT                 2018-06-24 21:57:50.613
 ***** ** ***  *** **   PROGRAM RAN ON                                    tcpc01
 **    ****   ******    PROGRAM RAN BY                                    hutter
 ***** **    ** ** **   PROGRAM PROCESS ID                                  3491
  **** **  *******  **  PROGRAM STOPPED IN /data/hutter/pseudo/UZH2018/PBE/V/q13
