
  **** **** ******  **  PROGRAM STARTED AT               2018-06-24 21:34:07.515
 ***** ** ***  *** **   PROGRAM STARTED ON                                tcpc01
 **    ****   ******    PROGRAM STARTED BY                                hutter
 ***** **    ** ** **   PROGRAM PROCESS ID                                  3371
  **** **  *******  **  PROGRAM STARTED IN /data/hutter/pseudo/UZH2018/PBE/Ti/q1
                                           2

 CP2K| version string:                    CP2K version 7.0 (Development Version)
 CP2K| source code revision number:                                    svn:18485
 CP2K| cp2kflags: libint fftw3 libxc libderiv_max_am1=5 libint_max_am=6 spglib  
 CP2K| is freely available from                            https://www.cp2k.org/
 CP2K| Program compiled at                         Wed Jun 20 10:41:43 CEST 2018
 CP2K| Program compiled on                                                tcpc01
 CP2K| Program compiled for                                                local
 CP2K| Data directory path                        /data/hutter/CURRENT/cp2k/data
 CP2K| Input file name                                                    Ti.inp

 GLOBAL| Method name                                                        ATOM
 GLOBAL| Project name                                                    PROJECT
 GLOBAL| Preferred FFT library                                             FFTW3
 GLOBAL| Preferred diagonalization lib.                                       SL
 GLOBAL| Run type                                                   ENERGY_FORCE
 GLOBAL| All-to-all communication in single precision                          F
 GLOBAL| FFTs using library dependent lengths                                  F
 GLOBAL| Global print level                                               MEDIUM
 GLOBAL| Total number of message passing processes                             1
 GLOBAL| Number of threads for this process                                    1
 GLOBAL| This output is from process                                           0
 GLOBAL| CPU model name :  Intel(R) Xeon(R) CPU           X5570  @ 2.93GHz

 MEMORY| system memory details [Kb]
 MEMORY|                        rank 0           min           max       average
 MEMORY| MemTotal             37009584      37009584      37009584      37009584
 MEMORY| MemFree              32377188      32377188      32377188      32377188
 MEMORY| Buffers                300620        300620        300620        300620
 MEMORY| Cached                2032788       2032788       2032788       2032788
 MEMORY| Slab                   272220        272220        272220        272220
 MEMORY| SReclaimable           203740        203740        203740        203740
 MEMORY| MemLikelyFree        34914336      34914336      34914336      34914336


 *** Fundamental physical constants (SI units) ***

 *** Literature: B. J. Mohr and B. N. Taylor,
 ***             CODATA recommended values of the fundamental physical
 ***             constants: 2006, Web Version 5.1
 ***             http://physics.nist.gov/constants

 Speed of light in vacuum [m/s]                             2.99792458000000E+08
 Magnetic constant or permeability of vacuum [N/A**2]       1.25663706143592E-06
 Electric constant or permittivity of vacuum [F/m]          8.85418781762039E-12
 Planck constant (h) [J*s]                                  6.62606896000000E-34
 Planck constant (h-bar) [J*s]                              1.05457162825177E-34
 Elementary charge [C]                                      1.60217648700000E-19
 Electron mass [kg]                                         9.10938215000000E-31
 Electron g factor [ ]                                     -2.00231930436220E+00
 Proton mass [kg]                                           1.67262163700000E-27
 Fine-structure constant                                    7.29735253760000E-03
 Rydberg constant [1/m]                                     1.09737315685270E+07
 Avogadro constant [1/mol]                                  6.02214179000000E+23
 Boltzmann constant [J/K]                                   1.38065040000000E-23
 Atomic mass unit [kg]                                      1.66053878200000E-27
 Bohr radius [m]                                            5.29177208590000E-11

 *** Conversion factors ***

 [u] -> [a.u.]                                              1.82288848426455E+03
 [Angstrom] -> [Bohr] = [a.u.]                              1.88972613288564E+00
 [a.u.] = [Bohr] -> [Angstrom]                              5.29177208590000E-01
 [a.u.] -> [s]                                              2.41888432650478E-17
 [a.u.] -> [fs]                                             2.41888432650478E-02
 [a.u.] -> [J]                                              4.35974393937059E-18
 [a.u.] -> [N]                                              8.23872205491840E-08
 [a.u.] -> [K]                                              3.15774647902944E+05
 [a.u.] -> [kJ/mol]                                         2.62549961709828E+03
 [a.u.] -> [kcal/mol]                                       6.27509468713739E+02
 [a.u.] -> [Pa]                                             2.94210107994716E+13
 [a.u.] -> [bar]                                            2.94210107994716E+08
 [a.u.] -> [atm]                                            2.90362800883016E+08
 [a.u.] -> [eV]                                             2.72113838565563E+01
 [a.u.] -> [Hz]                                             6.57968392072181E+15
 [a.u.] -> [1/cm] (wave numbers)                            2.19474631370540E+05
 [a.u./Bohr**2] -> [1/cm]                                   5.14048714338585E+03
 
 DBCSR| Multiplication driver                                               BLAS
 DBCSR| Multrec recursion limit                                              512
 DBCSR| Multiplication stack size                                           1000
 DBCSR| Maximum elements for images                                    UNLIMITED
 DBCSR| Multiplicative factor virtual images                                   1
 DBCSR| Multiplication size stacks                                             3



                           ****  ******  ****   ****   
                          **  ** ****** **  ** ******  
                          ******   **   **  ** **  **  
                          **  **   **    ****  **  **  
                                                       
                             University of Zurich      
                                 2009 - 2015           
                                                       
                                 Version 0.0           
                                                                   


 Atomic Energy Calculation             Titanium [Ti]         Atomic number:   22


 *******************************************************************************
 ************************** Calculate Reference States *************************
 *******************************************************************************

 METHOD    | Restricted Kohn-Sham Calculation
 METHOD    | Relativistic Calculation using Douglas-Kroll 3rd order
 FUNCTIONAL| ROUTINE=NEW
 FUNCTIONAL| PBE:
 FUNCTIONAL| J.P.Perdew, K.Burke, M.Ernzerhof, Phys. Rev. Letter, vol. 77, n 18,
 FUNCTIONAL|  pp. 3865-3868, (1996){spin unpolarized}                           

 Electronic structure
    Total number of core electrons                                          0.00
    Total number of valence electrons                                      22.00
    Total number of electrons                                              22.00
    Multiplicity                                                   not specified
    S      2.00  2.00  2.00  2.00
    P      6.00  6.00
    D      2.00


 *******************************************************************************
                  Iteration          Convergence                     Energy [au]
 *******************************************************************************
                          1         9.46957                    -835.255883297780
                          2         3.85914                    -830.995456329651
                          3         1.42159                    -850.676449536798
                          4        0.911275                    -852.495412146162
                          5        0.993548E-01                -853.427302172764
                          6        0.381125E-01                -853.446853792269
                          7        0.207030E-02                -853.449104772246
                          8        0.366894E-03                -853.449113373741
                          9        0.124416E-04                -853.449113655910
                         10        0.163153E-06                -853.449113656191
                         11        0.149604E-06                -853.449113656196
                         12        0.837056E-07                -853.449113656206

 Energy components [Hartree]           Total Energy ::         -853.449113656206
                                        Band Energy ::         -508.730893684378
                                     Kinetic Energy ::          879.197438389667
                                   Potential Energy ::        -1732.646552045873
                                      Virial (-V/T) ::            1.970713831036
                                        Core Energy ::        -1168.541849702440
                                          XC Energy ::          -42.021946559468
                                     Coulomb Energy ::          357.114682605702
                                        Confinement ::            0.000000374359

 Orbital energies  State     L     Occupation   Energy[a.u.]          Energy[eV]

                       1     0          2.000    -178.801401        -4865.433554
                       2     0          2.000     -19.719642         -536.598741
                       3     0          2.000      -2.299867          -62.582554
                       4     0          2.000      -0.163541           -4.450167
                       5     0          0.000       0.043960            1.196213
                       6     0          0.000       0.276677            7.528759

                       1     1          6.000     -16.315032         -443.954590
                       2     1          6.000      -1.426651          -38.821154
                       3     1          0.000      -0.051544           -1.402570
                       4     1          0.000       0.101761            2.769068

                       1     2          2.000      -0.155948           -4.243565
                       2     2          0.000       0.061020            1.660427
                       3     2          0.000       0.228360            6.213998

                       1     3          0.000       0.126942            3.454278


 Total Electron Density at R=0:                                     12436.107390

 *******************************************************************************
 ********************* Optimize Pseudopotential Parameters *********************
 *******************************************************************************

 POWELL| Start optimization procedure

 POWELL| Total number of parameters in optimization                           13

 POWELL| Initial errors of target values

 Reference configuration          1               Method number                1
    L    N    Occupation      Eigenvalue [eV]           dE [eV]          dCharge 
    0    1          2.00       -62.6067250455 SC  -0.024171[15]    -0.000039[ X]
    0    2          2.00        -4.4468108044 VA   0.003356[79]     0.000924[ 0]
    0    3          0.00         1.1937312875 U1  -0.002482[ X]     0.000652[ X]
    0    4          0.00         7.5154031740 U2  -0.013356[ X]     0.001366[ 0]
    1    1          6.00       -38.8111593296 SC   0.009995[ 2]    -0.000052[ X]
    1    2          0.00        -1.3887789319 U1   0.013791[ 2]    -0.001938[ X]
    1    3          0.00         2.7827695863 U2   0.013701[ X]    -0.000749[ 0]
    2    1          2.00        -4.2427590588 VA   0.000806[ 2]    -0.000091[ X]
    2    2          0.00         1.6615732733 U1   0.001147[ X]    -0.000109[ X]
    2    3          0.00         6.2197513029 U2   0.005754[ X]    -0.000772[ 0]
    3    1          0.00         3.4545161891 U1   0.000238[ X]    -0.000013[ X]

 Number of target values reached:                                      13 of  19

 POWELL| Start optimization   1 of total 100               rhobeg =   0.00040000
 POWELL| Inital value of function                                  13.6248598362
 POWELL| Reached   6% of maximal function calls                    13.6248598362
 POWELL| Reached   8% of maximal function calls                    13.6248598362
 POWELL| Reached  10% of maximal function calls                    13.6248598362
 POWELL| Reached  12% of maximal function calls                    13.6248598362
 POWELL| Reached  14% of maximal function calls                    13.6128996349
 POWELL| Reached  16% of maximal function calls                    13.6128996349
 POWELL| Reached  18% of maximal function calls                    13.6128996349
 POWELL| Reached  20% of maximal function calls                    13.6128996349
 POWELL| Reached  22% of maximal function calls                    13.6128996349
 POWELL| Reached  24% of maximal function calls                    13.6128996349
 POWELL| Reached  26% of maximal function calls                    13.6128996349
 POWELL| Reached  28% of maximal function calls                    13.6128996349
 POWELL| Reached  30% of maximal function calls                    13.6128996349
 POWELL| Reached  32% of maximal function calls                    13.6128996349
 POWELL| Reached  34% of maximal function calls                    13.6128996349
 POWELL| Reached  36% of maximal function calls                    13.6128996349
 POWELL| Reached  38% of maximal function calls                    13.6128996349
 POWELL| Reached  40% of maximal function calls                    13.6128996349
 POWELL| Reached  42% of maximal function calls                    13.6128996349
 POWELL| Reached  44% of maximal function calls                    13.6128996349
 POWELL| Reached  46% of maximal function calls                    13.6128996349
 POWELL| Reached  48% of maximal function calls                    13.6128996349
 POWELL| Reached  50% of maximal function calls                    13.6128996349
 POWELL| Reached  52% of maximal function calls                    13.6128996349
 POWELL| Reached  54% of maximal function calls                    13.6128996349
 POWELL| Reached  56% of maximal function calls                    13.6128996349
 POWELL| Reached  57% of maximal function calls                    13.6128996349
 POWELL| Reached  60% of maximal function calls                    13.6128996349
 POWELL| Reached  62% of maximal function calls                    13.6120699826
 POWELL| Reached  64% of maximal function calls                    13.6120699826
 POWELL| Reached  66% of maximal function calls                    13.6109436122
 POWELL| Reached  68% of maximal function calls                    13.6101761093
 POWELL| Reached  70% of maximal function calls                    13.6101761093
 POWELL| Reached  72% of maximal function calls                    13.6100429680
 POWELL| Reached  74% of maximal function calls                    13.6099488077
 POWELL| Reached  76% of maximal function calls                    13.6099488077
 POWELL| Reached  78% of maximal function calls                    13.6099488077
 POWELL| Reached  80% of maximal function calls                    13.6099488077
 POWELL| Reached  82% of maximal function calls                    13.6099485379
 POWELL| Reached  84% of maximal function calls                    13.6099485379
 POWELL| Reached  86% of maximal function calls                    13.6099485379
 POWELL| Reached  88% of maximal function calls                    13.6099485379
 POWELL| Reached  90% of maximal function calls                    13.6099485379
 POWELL| Reached  92% of maximal function calls                    13.6099483970
 POWELL| Reached  94% of maximal function calls                    13.6099483970
 POWELL| Reached  96% of maximal function calls                    13.6099483970
 POWELL| Reached  98% of maximal function calls                    13.6099483970
 POWELL| Reached 100% of maximal function calls                    13.6099483970
 POWELL| Reached 100% of maximal function calls                    13.6099476662
 POWELL| Exceeding maximum number of steps
 POWELL| Reached 100% of maximal function calls                    13.6099476662
 POWELL| RMS average of variables                                   0.0001123298
 POWELL| Start optimization   2 of total 100               rhobeg =   0.00039200
 POWELL| Inital value of function                                  13.6099476662
 POWELL| Reached   6% of maximal function calls                    13.6099476662
 POWELL| Reached   8% of maximal function calls                    13.6099476662
 POWELL| Reached  10% of maximal function calls                    13.6099476662
 POWELL| Reached  12% of maximal function calls                    13.6099476662
 POWELL| Reached  14% of maximal function calls                    13.6099476662
 POWELL| Reached  16% of maximal function calls                    13.6099476662
 POWELL| Reached  18% of maximal function calls                    13.6099476662
 POWELL| Reached  20% of maximal function calls                    13.6099476662
 POWELL| Reached  22% of maximal function calls                    13.6099476662
 POWELL| Reached  24% of maximal function calls                    13.6099476662
 POWELL| Reached  26% of maximal function calls                    13.6099476662
 POWELL| Reached  28% of maximal function calls                    13.6099476662
 POWELL| Reached  30% of maximal function calls                    13.6099476662
 POWELL| Reached  32% of maximal function calls                    13.6099476662
 POWELL| Reached  34% of maximal function calls                    13.6099476662
 POWELL| Reached  36% of maximal function calls                    13.6099476662
 POWELL| Reached  38% of maximal function calls                    13.6099476662
 POWELL| Reached  40% of maximal function calls                    13.6099476662
 POWELL| Reached  42% of maximal function calls                    13.6099476662
 POWELL| Reached  44% of maximal function calls                    13.6099476662
 POWELL| Reached  46% of maximal function calls                    13.6099476662
 POWELL| Reached  48% of maximal function calls                    13.6099476662
 POWELL| Reached  50% of maximal function calls                    13.6099476662
 POWELL| Reached  52% of maximal function calls                    13.6099476662
 POWELL| Reached  54% of maximal function calls                    13.6099476662
 POWELL| Reached  56% of maximal function calls                    13.6099476662
 POWELL| Reached  57% of maximal function calls                    13.6099476662
 POWELL| Reached  60% of maximal function calls                    13.6095153650
 POWELL| Reached  62% of maximal function calls                    13.6093394406
 POWELL| Reached  64% of maximal function calls                    13.6084593332
 POWELL| Reached  66% of maximal function calls                    13.6076405563
 POWELL| Reached  68% of maximal function calls                    13.6076405563
 POWELL| Reached  70% of maximal function calls                    13.6076405563
 POWELL| Reached  72% of maximal function calls                    13.6075654721
 POWELL| Reached  74% of maximal function calls                    13.6075654721
 POWELL| Reached  76% of maximal function calls                    13.6075085141
 POWELL| Reached  78% of maximal function calls                    13.6075085141
 POWELL| Reached  80% of maximal function calls                    13.6075043336
 POWELL| Reached  82% of maximal function calls                    13.6075043336
 POWELL| Reached  84% of maximal function calls                    13.6074996218
 POWELL| Reached  86% of maximal function calls                    13.6074996218
 POWELL| Reached  88% of maximal function calls                    13.6074996218
 POWELL| Reached  90% of maximal function calls                    13.6074996218
 POWELL| Reached  92% of maximal function calls                    13.6074803958
 POWELL| Reached  94% of maximal function calls                    13.6074803958
 POWELL| Reached  96% of maximal function calls                    13.6074730171
 POWELL| Reached  98% of maximal function calls                    13.6074108485
 POWELL| Reached 100% of maximal function calls                    13.6072924830
 POWELL| Reached 100% of maximal function calls                    13.6070445227
 POWELL| Exceeding maximum number of steps
 POWELL| Reached 100% of maximal function calls                    13.6070445227
 POWELL| RMS average of variables                                   0.0000221275
 POWELL| Start optimization   3 of total 100               rhobeg =   0.00038416
 POWELL| Inital value of function                                  13.6070445227
 POWELL| Reached   6% of maximal function calls                    13.6070445227
 POWELL| Reached   8% of maximal function calls                    13.6070445227
 POWELL| Reached  10% of maximal function calls                    13.6070445227
 POWELL| Reached  12% of maximal function calls                    13.6070445227
 POWELL| Reached  14% of maximal function calls                    13.6070445227
 POWELL| Reached  16% of maximal function calls                    13.6070445227
 POWELL| Reached  18% of maximal function calls                    13.6070445227
 POWELL| Reached  20% of maximal function calls                    13.6070445227
 POWELL| Reached  22% of maximal function calls                    13.6070445227
 POWELL| Reached  24% of maximal function calls                    13.6070445227
 POWELL| Reached  26% of maximal function calls                    13.6070445227
 POWELL| Reached  28% of maximal function calls                    13.6070445227
 POWELL| Reached  30% of maximal function calls                    13.6070445227
 POWELL| Reached  32% of maximal function calls                    13.6070445227
 POWELL| Reached  34% of maximal function calls                    13.6070445227
 POWELL| Reached  36% of maximal function calls                    13.6070445227
 POWELL| Reached  38% of maximal function calls                    13.6070445227
 POWELL| Reached  40% of maximal function calls                    13.6070445227
 POWELL| Reached  42% of maximal function calls                    13.6070445227
 POWELL| Reached  44% of maximal function calls                    13.6070445227
 POWELL| Reached  46% of maximal function calls                    13.6070445227
 POWELL| Reached  48% of maximal function calls                    13.6070445227
 POWELL| Reached  50% of maximal function calls                    13.6070445227
 POWELL| Reached  52% of maximal function calls                    13.6070445227
 POWELL| Reached  54% of maximal function calls                    13.6070445227
 POWELL| Reached  56% of maximal function calls                    13.6070445227
 POWELL| Reached  57% of maximal function calls                    13.6070445227
 POWELL| Reached  60% of maximal function calls                    13.6070445227
 POWELL| Reached  62% of maximal function calls                    13.5997631201
 POWELL| Reached  64% of maximal function calls                    13.5992031153
 POWELL| Reached  66% of maximal function calls                    13.5992031153
 POWELL| Reached  68% of maximal function calls                    13.5991293252
 POWELL| Reached  70% of maximal function calls                    13.5991115749
 POWELL| Reached  72% of maximal function calls                    13.5983665249
 POWELL| Reached  74% of maximal function calls                    13.5978555575
 POWELL| Reached  76% of maximal function calls                    13.5978555575
 POWELL| Reached  78% of maximal function calls                    13.5978555575
 POWELL| Reached  80% of maximal function calls                    13.5978510102
 POWELL| Reached  82% of maximal function calls                    13.5978510102
 POWELL| Reached  84% of maximal function calls                    13.5978449898
 POWELL| Reached  86% of maximal function calls                    13.5978449898
 POWELL| Reached  88% of maximal function calls                    13.5978449898
 POWELL| Reached  90% of maximal function calls                    13.5978438212
 POWELL| Reached  92% of maximal function calls                    13.5978437423
 POWELL| Reached  94% of maximal function calls                    13.5978424672
 POWELL| Reached  96% of maximal function calls                    13.5978419624
 POWELL| Reached  98% of maximal function calls                    13.5977756139
 POWELL| Reached 100% of maximal function calls                    13.5976438467
 POWELL| Reached 100% of maximal function calls                    13.5974247810
 POWELL| Exceeding maximum number of steps
 POWELL| Reached 100% of maximal function calls                    13.5974247810
 POWELL| RMS average of variables                                   0.0000118282
 POWELL| Start optimization   4 of total 100               rhobeg =   0.00037648
 POWELL| Inital value of function                                  13.5974247810
 POWELL| Reached   6% of maximal function calls                    13.5974247810
 POWELL| Reached   8% of maximal function calls                    13.5974247810
 POWELL| Reached  10% of maximal function calls                    13.5974247810
 POWELL| Reached  12% of maximal function calls                    13.5974247810
 POWELL| Reached  14% of maximal function calls                    13.5974247810
 POWELL| Reached  16% of maximal function calls                    13.5974247810
 POWELL| Reached  18% of maximal function calls                    13.5974247810
 POWELL| Reached  20% of maximal function calls                    13.5974247810
 POWELL| Reached  22% of maximal function calls                    13.5974247810
 POWELL| Reached  24% of maximal function calls                    13.5974247810
 POWELL| Reached  26% of maximal function calls                    13.5974247810
 POWELL| Reached  28% of maximal function calls                    13.5974247810
 POWELL| Reached  30% of maximal function calls                    13.5974247810
 POWELL| Reached  32% of maximal function calls                    13.5974247810
 POWELL| Reached  34% of maximal function calls                    13.5974247810
 POWELL| Reached  36% of maximal function calls                    13.5974247810
 POWELL| Reached  38% of maximal function calls                    13.5974247810
 POWELL| Reached  40% of maximal function calls                    13.5974247810
 POWELL| Reached  42% of maximal function calls                    13.5974247810
 POWELL| Reached  44% of maximal function calls                    13.5974247810
 POWELL| Reached  46% of maximal function calls                    13.5974247810
 POWELL| Reached  48% of maximal function calls                    13.5974247810
 POWELL| Reached  50% of maximal function calls                    13.5974247810
 POWELL| Reached  52% of maximal function calls                    13.5974247810
 POWELL| Reached  54% of maximal function calls                    13.5974247810
 POWELL| Reached  56% of maximal function calls                    13.5974247810
 POWELL| Reached  57% of maximal function calls                    13.5974247810
 POWELL| Reached  60% of maximal function calls                    13.5974247810
 POWELL| Reached  62% of maximal function calls                    13.5916630093
 POWELL| Reached  64% of maximal function calls                    13.5912479966
 POWELL| Reached  66% of maximal function calls                    13.5912479966
 POWELL| Reached  68% of maximal function calls                    13.5911273667
 POWELL| Reached  70% of maximal function calls                    13.5911077481
 POWELL| Reached  72% of maximal function calls                    13.5900781190
 POWELL| Reached  74% of maximal function calls                    13.5892780590
 POWELL| Reached  76% of maximal function calls                    13.5892780590
 POWELL| Reached  78% of maximal function calls                    13.5892733554
 POWELL| Reached  80% of maximal function calls                    13.5892733554
 POWELL| Reached  82% of maximal function calls                    13.5892674492
 POWELL| Reached  84% of maximal function calls                    13.5892674492
 POWELL| Reached  86% of maximal function calls                    13.5892674492
 POWELL| Reached  88% of maximal function calls                    13.5892666876
 POWELL| Reached  90% of maximal function calls                    13.5892651841
 POWELL| Reached  92% of maximal function calls                    13.5892651841
 POWELL| Reached  94% of maximal function calls                    13.5892637210
 POWELL| Reached  96% of maximal function calls                    13.5891848547
 POWELL| Reached  98% of maximal function calls                    13.5890275992
 POWELL| Reached 100% of maximal function calls                    13.5887326106
 POWELL| Reached 100% of maximal function calls                    13.5887326106
 POWELL| Exceeding maximum number of steps
 POWELL| Reached 100% of maximal function calls                    13.5887326106
 POWELL| RMS average of variables                                   0.0000115893
 POWELL| Start optimization   5 of total 100               rhobeg =   0.00036895
 POWELL| Inital value of function                                  13.5887326106
 POWELL| Reached   6% of maximal function calls                    13.5887326106
 POWELL| Reached   8% of maximal function calls                    13.5887326106
 POWELL| Reached  10% of maximal function calls                    13.5887326106
 POWELL| Reached  12% of maximal function calls                    13.5887326106
 POWELL| Reached  14% of maximal function calls                    13.5887326106
 POWELL| Reached  16% of maximal function calls                    13.5887326106
 POWELL| Reached  18% of maximal function calls                    13.5887326106
 POWELL| Reached  20% of maximal function calls                    13.5887326106
 POWELL| Reached  22% of maximal function calls                    13.5887326106
 POWELL| Reached  24% of maximal function calls                    13.5887326106
 POWELL| Reached  26% of maximal function calls                    13.5887326106
 POWELL| Reached  28% of maximal function calls                    13.5887326106
 POWELL| Reached  30% of maximal function calls                    13.5887326106
 POWELL| Reached  32% of maximal function calls                    13.5887326106
 POWELL| Reached  34% of maximal function calls                    13.5887326106
 POWELL| Reached  36% of maximal function calls                    13.5887326106
 POWELL| Reached  38% of maximal function calls                    13.5887326106
 POWELL| Reached  40% of maximal function calls                    13.5887326106
 POWELL| Reached  42% of maximal function calls                    13.5887326106
 POWELL| Reached  44% of maximal function calls                    13.5887326106
 POWELL| Reached  46% of maximal function calls                    13.5887326106
 POWELL| Reached  48% of maximal function calls                    13.5887326106
 POWELL| Reached  50% of maximal function calls                    13.5887326106
 POWELL| Reached  52% of maximal function calls                    13.5887326106
 POWELL| Reached  54% of maximal function calls                    13.5887326106
 POWELL| Reached  56% of maximal function calls                    13.5887326106
 POWELL| Reached  57% of maximal function calls                    13.5887326106
 POWELL| Reached  60% of maximal function calls                    13.5887326106
 POWELL| Reached  62% of maximal function calls                    13.5842046110
 POWELL| Reached  64% of maximal function calls                    13.5839063970
 POWELL| Reached  66% of maximal function calls                    13.5839063970
 POWELL| Reached  68% of maximal function calls                    13.5837461762
 POWELL| Reached  70% of maximal function calls                    13.5837250108
 POWELL| Reached  72% of maximal function calls                    13.5824864592
 POWELL| Reached  74% of maximal function calls                    13.5814729071
 POWELL| Reached  76% of maximal function calls                    13.5814729071
 POWELL| Reached  78% of maximal function calls                    13.5814729071
 POWELL| Reached  80% of maximal function calls                    13.5814729071
 POWELL| Reached  82% of maximal function calls                    13.5814564600
 POWELL| Reached  84% of maximal function calls                    13.5814564600
 POWELL| Reached  86% of maximal function calls                    13.5814392081
 POWELL| Reached  88% of maximal function calls                    13.5814392081
 POWELL| Reached  90% of maximal function calls                    13.5814379578
 POWELL| Reached  92% of maximal function calls                    13.5814359723
 POWELL| Reached  94% of maximal function calls                    13.5814338663
 POWELL| Reached  96% of maximal function calls                    13.5814338663
 POWELL| Reached  98% of maximal function calls                    13.5814182876
 POWELL| Reached 100% of maximal function calls                    13.5814149476
 POWELL| Reached 100% of maximal function calls                    13.5814140915
 POWELL| Exceeding maximum number of steps
 POWELL| Reached 100% of maximal function calls                    13.5814140915
 POWELL| RMS average of variables                                   0.0000113507
 POWELL| Start optimization   6 of total 100               rhobeg =   0.00036157
 POWELL| Inital value of function                                  13.5814140915
 POWELL| Reached   6% of maximal function calls                    13.5814140915
 POWELL| Reached   8% of maximal function calls                    13.5814140915
 POWELL| Reached  10% of maximal function calls                    13.5814140915
 POWELL| Reached  12% of maximal function calls                    13.5814140915
 POWELL| Reached  14% of maximal function calls                    13.5814140915
 POWELL| Reached  16% of maximal function calls                    13.5814140915
 POWELL| Reached  18% of maximal function calls                    13.5814140915
 POWELL| Reached  20% of maximal function calls                    13.5814140915
 POWELL| Reached  22% of maximal function calls                    13.5814140915
 POWELL| Reached  24% of maximal function calls                    13.5814140915
 POWELL| Reached  26% of maximal function calls                    13.5814140915
 POWELL| Reached  28% of maximal function calls                    13.5814140915
 POWELL| Reached  30% of maximal function calls                    13.5814140915
 POWELL| Reached  32% of maximal function calls                    13.5814140915
 POWELL| Reached  34% of maximal function calls                    13.5814140915
 POWELL| Reached  36% of maximal function calls                    13.5814140915
 POWELL| Reached  38% of maximal function calls                    13.5814140915
 POWELL| Reached  40% of maximal function calls                    13.5814140915
 POWELL| Reached  42% of maximal function calls                    13.5814140915
 POWELL| Reached  44% of maximal function calls                    13.5814140915
 POWELL| Reached  46% of maximal function calls                    13.5814140915
 POWELL| Reached  48% of maximal function calls                    13.5814140915
 POWELL| Reached  50% of maximal function calls                    13.5814140915
 POWELL| Reached  52% of maximal function calls                    13.5814140915
 POWELL| Reached  54% of maximal function calls                    13.5814140915
 POWELL| Reached  56% of maximal function calls                    13.5814140915
 POWELL| Reached  57% of maximal function calls                    13.5814140915
 POWELL| Reached  60% of maximal function calls                    13.5814140915
 POWELL| Reached  62% of maximal function calls                    13.5784471194
 POWELL| Reached  64% of maximal function calls                    13.5782985255
 POWELL| Reached  66% of maximal function calls                    13.5782985255
 POWELL| Reached  68% of maximal function calls                    13.5780921695
 POWELL| Reached  70% of maximal function calls                    13.5780692617
 POWELL| Reached  72% of maximal function calls                    13.5765161501
 POWELL| Reached  74% of maximal function calls                    13.5751845189
 POWELL| Reached  76% of maximal function calls                    13.5751845189
 POWELL| Reached  78% of maximal function calls                    13.5751845189
 POWELL| Reached  80% of maximal function calls                    13.5751845189
 POWELL| Reached  82% of maximal function calls                    13.5751672670
 POWELL| Reached  84% of maximal function calls                    13.5751672670
 POWELL| Reached  86% of maximal function calls                    13.5751494479
 POWELL| Reached  88% of maximal function calls                    13.5751494479
 POWELL| Reached  90% of maximal function calls                    13.5751494479
 POWELL| Reached  92% of maximal function calls                    13.5751465146
 POWELL| Reached  94% of maximal function calls                    13.5751456705
 POWELL| Reached  96% of maximal function calls                    13.5751456705
 POWELL| Reached  98% of maximal function calls                    13.5751456705
 POWELL| Reached 100% of maximal function calls                    13.5751456705
 POWELL| Reached 100% of maximal function calls                    13.5751451343
 POWELL| Exceeding maximum number of steps
 POWELL| Reached 100% of maximal function calls                    13.5751451343
 POWELL| RMS average of variables                                   0.0000111223
 POWELL| Start optimization   7 of total 100               rhobeg =   0.00035434
 POWELL| Inital value of function                                  13.5751451343
 POWELL| Reached   6% of maximal function calls                    13.5751451343
 POWELL| Reached   8% of maximal function calls                    13.5751451343
 POWELL| Reached  10% of maximal function calls                    13.5751451343
 POWELL| Reached  12% of maximal function calls                    13.5751451343
 POWELL| Reached  14% of maximal function calls                    13.5751451343
 POWELL| Reached  16% of maximal function calls                    13.5751451343
 POWELL| Reached  18% of maximal function calls                    13.5751451343
 POWELL| Reached  20% of maximal function calls                    13.5751451343
 POWELL| Reached  22% of maximal function calls                    13.5751451343
 POWELL| Reached  24% of maximal function calls                    13.5751451343
 POWELL| Reached  26% of maximal function calls                    13.5751451343
 POWELL| Reached  28% of maximal function calls                    13.5751451343
 POWELL| Reached  30% of maximal function calls                    13.5751451343
 POWELL| Reached  32% of maximal function calls                    13.5751451343
 POWELL| Reached  34% of maximal function calls                    13.5714830578
 POWELL| Reached  36% of maximal function calls                    13.5714830578
 POWELL| Reached  38% of maximal function calls                    13.5714830578
 POWELL| Reached  40% of maximal function calls                    13.5714830578
 POWELL| Reached  42% of maximal function calls                    13.5714830578
 POWELL| Reached  44% of maximal function calls                    13.5714830578
 POWELL| Reached  46% of maximal function calls                    13.5714830578
 POWELL| Reached  48% of maximal function calls                    13.5714830578
 POWELL| Reached  50% of maximal function calls                    13.5714830578
 POWELL| Reached  52% of maximal function calls                    13.5714830578
 POWELL| Reached  54% of maximal function calls                    13.5714830578
 POWELL| Reached  56% of maximal function calls                    13.5714830578
 POWELL| Reached  57% of maximal function calls                    13.5714830578
 POWELL| Reached  60% of maximal function calls                    13.5714830578
 POWELL| Reached  62% of maximal function calls                    13.5626464146
 POWELL| Reached  64% of maximal function calls                    13.5622292940
 POWELL| Reached  66% of maximal function calls                    13.5621861444
 POWELL| Reached  68% of maximal function calls                    13.5621012336
 POWELL| Reached  70% of maximal function calls                    13.5621012336
 POWELL| Reached  72% of maximal function calls                    13.5621012336
 POWELL| Reached  74% of maximal function calls                    13.5621012336
 POWELL| Reached  76% of maximal function calls                    13.5621012336
 POWELL| Reached  78% of maximal function calls                    13.5621012336
 POWELL| Reached  80% of maximal function calls                    13.5620893939
 POWELL| Reached  82% of maximal function calls                    13.5620893939
 POWELL| Reached  84% of maximal function calls                    13.5620752311
 POWELL| Reached  86% of maximal function calls                    13.5620752311
 POWELL| Reached  88% of maximal function calls                    13.5620752311
 POWELL| Reached  90% of maximal function calls                    13.5620752311
 POWELL| Reached  92% of maximal function calls                    13.5620749865
 POWELL| Reached  94% of maximal function calls                    13.5620749865
 POWELL| Reached  96% of maximal function calls                    13.5620749865
 POWELL| Reached  98% of maximal function calls                    13.5620749865
 POWELL| Reached 100% of maximal function calls                    13.5620238304
 POWELL| Reached 100% of maximal function calls                    13.5620192171
 POWELL| Exceeding maximum number of steps
 POWELL| Reached 100% of maximal function calls                    13.5620192171
 POWELL| RMS average of variables                                   0.0001003141
 POWELL| Start optimization   8 of total 100               rhobeg =   0.00034725
 POWELL| Inital value of function                                  13.5620192171
 POWELL| Reached   6% of maximal function calls                    13.5620192171
 POWELL| Reached   8% of maximal function calls                    13.5620192171
 POWELL| Reached  10% of maximal function calls                    13.5620192171
 POWELL| Reached  12% of maximal function calls                    13.5620192171
 POWELL| Reached  14% of maximal function calls                    13.5620192171
 POWELL| Reached  16% of maximal function calls                    13.5620192171
 POWELL| Reached  18% of maximal function calls                    13.5620192171
 POWELL| Reached  20% of maximal function calls                    13.5620192171
 POWELL| Reached  22% of maximal function calls                    13.5620192171
 POWELL| Reached  24% of maximal function calls                    13.5620192171
 POWELL| Reached  26% of maximal function calls                    13.5620192171
 POWELL| Reached  28% of maximal function calls                    13.5620192171
 POWELL| Reached  30% of maximal function calls                    13.5620192171
 POWELL| Reached  32% of maximal function calls                    13.5620192171
 POWELL| Reached  34% of maximal function calls                    13.5620192171
 POWELL| Reached  36% of maximal function calls                    13.5620192171
 POWELL| Reached  38% of maximal function calls                    13.5620192171
 POWELL| Reached  40% of maximal function calls                    13.5620192171
 POWELL| Reached  42% of maximal function calls                    13.5620192171
 POWELL| Reached  44% of maximal function calls                    13.5620192171
 POWELL| Reached  46% of maximal function calls                    13.5620192171
 POWELL| Reached  48% of maximal function calls                    13.5620192171
 POWELL| Reached  50% of maximal function calls                    13.5620192171
 POWELL| Reached  52% of maximal function calls                    13.5620192171
 POWELL| Reached  54% of maximal function calls                    13.5620192171
 POWELL| Reached  56% of maximal function calls                    13.5620192171
 POWELL| Reached  57% of maximal function calls                    13.5620192171
 POWELL| Reached  60% of maximal function calls                    13.5620192171
 POWELL| Reached  62% of maximal function calls                    13.5558122808
 POWELL| Reached  64% of maximal function calls                    13.5553286472
 POWELL| Reached  66% of maximal function calls                    13.5553286472
 POWELL| Reached  68% of maximal function calls                    13.5552136223
 POWELL| Reached  70% of maximal function calls                    13.5551933123
 POWELL| Reached  72% of maximal function calls                    13.5546877409
 POWELL| Reached  74% of maximal function calls                    13.5543717970
 POWELL| Reached  76% of maximal function calls                    13.5543717970
 POWELL| Reached  78% of maximal function calls                    13.5543684339
 POWELL| Reached  80% of maximal function calls                    13.5543684339
 POWELL| Reached  82% of maximal function calls                    13.5543684339
 POWELL| Reached  84% of maximal function calls                    13.5543675394
 POWELL| Reached  86% of maximal function calls                    13.5543675394
 POWELL| Reached  88% of maximal function calls                    13.5543550205
 POWELL| Reached  90% of maximal function calls                    13.5543402767
 POWELL| Reached  92% of maximal function calls                    13.5543383301
 POWELL| Reached  94% of maximal function calls                    13.5543369287
 POWELL| Reached  96% of maximal function calls                    13.5542906581
 POWELL| Reached  98% of maximal function calls                    13.5542867989
 POWELL| Reached 100% of maximal function calls                    13.5542867989
 POWELL| Reached 100% of maximal function calls                    13.5542865629
 POWELL| Exceeding maximum number of steps
 POWELL| Reached 100% of maximal function calls                    13.5542865629
 POWELL| RMS average of variables                                   0.0000106951
 POWELL| Start optimization   9 of total 100               rhobeg =   0.00034031
 POWELL| Inital value of function                                  13.5542865629
 POWELL| Reached   6% of maximal function calls                    13.5542865629
 POWELL| Reached   8% of maximal function calls                    13.5542865629
 POWELL| Reached  10% of maximal function calls                    13.5542865629
 POWELL| Reached  12% of maximal function calls                    13.5542865629
 POWELL| Reached  14% of maximal function calls                    13.5542865629
 POWELL| Reached  16% of maximal function calls                    13.5542865629
 POWELL| Reached  18% of maximal function calls                    13.5542865629
 POWELL| Reached  20% of maximal function calls                    13.5542865629
 POWELL| Reached  22% of maximal function calls                    13.5542865629
 POWELL| Reached  24% of maximal function calls                    13.5542865629
 POWELL| Reached  26% of maximal function calls                    13.5542865629
 POWELL| Reached  28% of maximal function calls                    13.5542865629
 POWELL| Reached  30% of maximal function calls                    13.5542865629
 POWELL| Reached  32% of maximal function calls                    13.5542865629
 POWELL| Reached  34% of maximal function calls                    13.5542865629
 POWELL| Reached  36% of maximal function calls                    13.5542865629
 POWELL| Reached  38% of maximal function calls                    13.5542865629
 POWELL| Reached  40% of maximal function calls                    13.5542865629
 POWELL| Reached  42% of maximal function calls                    13.5542865629
 POWELL| Reached  44% of maximal function calls                    13.5542865629
 POWELL| Reached  46% of maximal function calls                    13.5542865629
 POWELL| Reached  48% of maximal function calls                    13.5542865629
 POWELL| Reached  50% of maximal function calls                    13.5542865629
 POWELL| Reached  52% of maximal function calls                    13.5542865629
 POWELL| Reached  54% of maximal function calls                    13.5542865629
 POWELL| Reached  56% of maximal function calls                    13.5542865629
 POWELL| Reached  57% of maximal function calls                    13.5542865629
 POWELL| Reached  60% of maximal function calls                    13.5542865629
 POWELL| Reached  62% of maximal function calls                    13.5495343395
 POWELL| Reached  64% of maximal function calls                    13.5491905801
 POWELL| Reached  66% of maximal function calls                    13.5491905801
 POWELL| Reached  68% of maximal function calls                    13.5490335104
 POWELL| Reached  70% of maximal function calls                    13.5490117683
 POWELL| Reached  72% of maximal function calls                    13.5482079908
 POWELL| Reached  74% of maximal function calls                    13.5475915872
 POWELL| Reached  76% of maximal function calls                    13.5475915872
 POWELL| Reached  78% of maximal function calls                    13.5475915872
 POWELL| Reached  80% of maximal function calls                    13.5475915872
 POWELL| Reached  82% of maximal function calls                    13.5475782891
 POWELL| Reached  84% of maximal function calls                    13.5475782891
 POWELL| Reached  86% of maximal function calls                    13.5475644449
 POWELL| Reached  88% of maximal function calls                    13.5475644449
 POWELL| Reached  90% of maximal function calls                    13.5475644449
 POWELL| Reached  92% of maximal function calls                    13.5475644449
 POWELL| Reached  94% of maximal function calls                    13.5475644121
 POWELL| Reached  96% of maximal function calls                    13.5475644121
 POWELL| Reached  98% of maximal function calls                    13.5475637287
 POWELL| Reached 100% of maximal function calls                    13.5475442000
 POWELL| Reached 100% of maximal function calls                    13.5475440060
 POWELL| Exceeding maximum number of steps
 POWELL| Reached 100% of maximal function calls                    13.5475440060
 POWELL| RMS average of variables                                   0.0000104722
 POWELL| Start optimization  10 of total 100               rhobeg =   0.00033350
 POWELL| Inital value of function                                  13.5475440060
 POWELL| Reached   6% of maximal function calls                    13.5475440060
 POWELL| Reached   8% of maximal function calls                    13.5475440060
 POWELL| Reached  10% of maximal function calls                    13.5475440060
 POWELL| Reached  12% of maximal function calls                    13.5475440060
 POWELL| Reached  14% of maximal function calls                    13.5475440060
 POWELL| Reached  16% of maximal function calls                    13.5475440060
 POWELL| Reached  18% of maximal function calls                    13.5475440060
 POWELL| Reached  20% of maximal function calls                    13.5475440060
 POWELL| Reached  22% of maximal function calls                    13.5475440060
 POWELL| Reached  24% of maximal function calls                    13.5475440060
 POWELL| Reached  26% of maximal function calls                    13.5475440060
 POWELL| Reached  28% of maximal function calls                    13.5475440060
 POWELL| Reached  30% of maximal function calls                    13.5475440060
 POWELL| Reached  32% of maximal function calls                    13.5475440060
 POWELL| Reached  34% of maximal function calls                    13.5475440060
 POWELL| Reached  36% of maximal function calls                    13.5475440060
 POWELL| Reached  38% of maximal function calls                    13.5475440060
 POWELL| Reached  40% of maximal function calls                    13.5475440060
 POWELL| Reached  42% of maximal function calls                    13.5475440060
 POWELL| Reached  44% of maximal function calls                    13.5475440060
 POWELL| Reached  46% of maximal function calls                    13.5475440060
 POWELL| Reached  48% of maximal function calls                    13.5475440060
 POWELL| Reached  50% of maximal function calls                    13.5475440060
 POWELL| Reached  52% of maximal function calls                    13.5475440060
 POWELL| Reached  54% of maximal function calls                    13.5475440060
 POWELL| Reached  56% of maximal function calls                    13.5475440060
 POWELL| Reached  57% of maximal function calls                    13.5475440060
 POWELL| Reached  60% of maximal function calls                    13.5475440060
 POWELL| Reached  62% of maximal function calls                    13.5441326838
 POWELL| Reached  64% of maximal function calls                    13.5439178039
 POWELL| Reached  66% of maximal function calls                    13.5439178039
 POWELL| Reached  68% of maximal function calls                    13.5437220038
 POWELL| Reached  70% of maximal function calls                    13.5436989914
 POWELL| Reached  72% of maximal function calls                    13.5426233214
 POWELL| Reached  74% of maximal function calls                    13.5417323414
 POWELL| Reached  76% of maximal function calls                    13.5417323414
 POWELL| Reached  78% of maximal function calls                    13.5417323414
 POWELL| Reached  80% of maximal function calls                    13.5417323414
 POWELL| Reached  82% of maximal function calls                    13.5417184385
 POWELL| Reached  84% of maximal function calls                    13.5417184385
 POWELL| Reached  86% of maximal function calls                    13.5417039278
 POWELL| Reached  88% of maximal function calls                    13.5417039278
 POWELL| Reached  90% of maximal function calls                    13.5417039278
 POWELL| Reached  92% of maximal function calls                    13.5417039278
 POWELL| Reached  94% of maximal function calls                    13.5417039278
 POWELL| Reached  96% of maximal function calls                    13.5417039278
 POWELL| Reached  98% of maximal function calls                    13.5417027290
 POWELL| Reached 100% of maximal function calls                    13.5417027290
 POWELL| Reached 100% of maximal function calls                    13.5417026630
 POWELL| Exceeding maximum number of steps
 POWELL| Reached 100% of maximal function calls                    13.5417026630
 POWELL| RMS average of variables                                   0.0000102582
 POWELL| Start optimization  11 of total 100               rhobeg =   0.00032683
 POWELL| Inital value of function                                  13.5417026630
 POWELL| Reached   6% of maximal function calls                    13.5417026630
 POWELL| Reached   8% of maximal function calls                    13.5417026630
 POWELL| Reached  10% of maximal function calls                    13.5417026630
 POWELL| Reached  12% of maximal function calls                    13.5417026630
 POWELL| Reached  14% of maximal function calls                    13.5417026630
 POWELL| Reached  16% of maximal function calls                    13.5417026630
 POWELL| Reached  18% of maximal function calls                    13.5417026630
 POWELL| Reached  20% of maximal function calls                    13.5417026630
 POWELL| Reached  22% of maximal function calls                    13.5417026630
 POWELL| Reached  24% of maximal function calls                    13.5417026630
 POWELL| Reached  26% of maximal function calls                    13.5417026630
 POWELL| Reached  28% of maximal function calls                    13.5417026630
 POWELL| Reached  30% of maximal function calls                    13.5417026630
 POWELL| Reached  32% of maximal function calls                    13.5417026630
 POWELL| Reached  34% of maximal function calls                    13.5398363638
 POWELL| Reached  36% of maximal function calls                    13.5398363638
 POWELL| Reached  38% of maximal function calls                    13.5398363638
 POWELL| Reached  40% of maximal function calls                    13.5398363638
 POWELL| Reached  42% of maximal function calls                    13.5398363638
 POWELL| Reached  44% of maximal function calls                    13.5398363638
 POWELL| Reached  46% of maximal function calls                    13.5398363638
 POWELL| Reached  48% of maximal function calls                    13.5398363638
 POWELL| Reached  50% of maximal function calls                    13.5398363638
 POWELL| Reached  52% of maximal function calls                    13.5398363638
 POWELL| Reached  54% of maximal function calls                    13.5398363638
 POWELL| Reached  56% of maximal function calls                    13.5398363638
 POWELL| Reached  57% of maximal function calls                    13.5398363638
 POWELL| Reached  60% of maximal function calls                    13.5398363638
 POWELL| Reached  62% of maximal function calls                    13.5314516523
 POWELL| Reached  64% of maximal function calls                    13.5310596809
 POWELL| Reached  66% of maximal function calls                    13.5310596809
 POWELL| Reached  68% of maximal function calls                    13.5310032239
 POWELL| Reached  70% of maximal function calls                    13.5309947056
 POWELL| Reached  72% of maximal function calls                    13.5309947056
 POWELL| Reached  74% of maximal function calls                    13.5309947056
 POWELL| Reached  76% of maximal function calls                    13.5309947056
 POWELL| Reached  78% of maximal function calls                    13.5309947056
 POWELL| Reached  80% of maximal function calls                    13.5309852942
 POWELL| Reached  82% of maximal function calls                    13.5309852942
 POWELL| Reached  84% of maximal function calls                    13.5309852942
 POWELL| Reached  86% of maximal function calls                    13.5309852942
 POWELL| Reached  88% of maximal function calls                    13.5309852942
 POWELL| Reached  90% of maximal function calls                    13.5309852942
 POWELL| Reached  92% of maximal function calls                    13.5309631409
 POWELL| Reached  94% of maximal function calls                    13.5309631409
 POWELL| Reached  96% of maximal function calls                    13.5309631409
 POWELL| Reached  98% of maximal function calls                    13.5309618765
 POWELL| Reached 100% of maximal function calls                    13.5309618765
 POWELL| Reached 100% of maximal function calls                    13.5309618765
 POWELL| Exceeding maximum number of steps
 POWELL| Reached 100% of maximal function calls                    13.5309618765
 POWELL| RMS average of variables                                   0.0000919859
 POWELL| Start optimization  12 of total 100               rhobeg =   0.00032029
 POWELL| Inital value of function                                  13.5309618765
 POWELL| Reached   6% of maximal function calls                    13.5309618765
 POWELL| Reached   8% of maximal function calls                    13.5309618765
 POWELL| Reached  10% of maximal function calls                    13.5309618765
 POWELL| Reached  12% of maximal function calls                    13.5309618765
 POWELL| Reached  14% of maximal function calls                    13.5309618765
 POWELL| Reached  16% of maximal function calls                    13.5309618765
 POWELL| Reached  18% of maximal function calls                    13.5309618765
 POWELL| Reached  20% of maximal function calls                    13.5309618765
 POWELL| Reached  22% of maximal function calls                    13.5309618765
 POWELL| Reached  24% of maximal function calls                    13.5309618765
 POWELL| Reached  26% of maximal function calls                    13.5309618765
 POWELL| Reached  28% of maximal function calls                    13.5309618765
 POWELL| Reached  30% of maximal function calls                    13.5309618765
 POWELL| Reached  32% of maximal function calls                    13.5309618765
 POWELL| Reached  34% of maximal function calls                    13.5309618765
 POWELL| Reached  36% of maximal function calls                    13.5309618765
 POWELL| Reached  38% of maximal function calls                    13.5309618765
 POWELL| Reached  40% of maximal function calls                    13.5309618765
 POWELL| Reached  42% of maximal function calls                    13.5309618765
 POWELL| Reached  44% of maximal function calls                    13.5299484155
 POWELL| Reached  46% of maximal function calls                    13.5299484155
 POWELL| Reached  48% of maximal function calls                    13.5299484155
 POWELL| Reached  50% of maximal function calls                    13.5299484155
 POWELL| Reached  52% of maximal function calls                    13.5299484155
 POWELL| Reached  54% of maximal function calls                    13.5299484155
 POWELL| Reached  56% of maximal function calls                    13.5299484155
 POWELL| Reached  57% of maximal function calls                    13.5299484155
 POWELL| Reached  60% of maximal function calls                    13.5299484155
 POWELL| Reached  62% of maximal function calls                    13.5299484155
 POWELL| Reached  64% of maximal function calls                    13.5299484155
 POWELL| Reached  66% of maximal function calls                    13.5299484155
 POWELL| Reached  68% of maximal function calls                    13.5296238638
 POWELL| Reached  70% of maximal function calls                    13.5296238638
 POWELL| Reached  72% of maximal function calls                    13.5269163262
 POWELL| Reached  74% of maximal function calls                    13.5250399761
 POWELL| Reached  76% of maximal function calls                    13.5250399761
 POWELL| Reached  78% of maximal function calls                    13.5250399761
 POWELL| Reached  80% of maximal function calls                    13.5250156888
 POWELL| Reached  82% of maximal function calls                    13.5250156888
 POWELL| Reached  84% of maximal function calls                    13.5250156888
 POWELL| Reached  86% of maximal function calls                    13.5250156888
 POWELL| Reached  88% of maximal function calls                    13.5250019846
 POWELL| Reached  90% of maximal function calls                    13.5250019846
 POWELL| Reached  92% of maximal function calls                    13.5249958557
 POWELL| Reached  94% of maximal function calls                    13.5249958557
 POWELL| Reached  96% of maximal function calls                    13.5249920795
 POWELL| Reached  98% of maximal function calls                    13.5249920795
 POWELL| Reached 100% of maximal function calls                    13.5249824107
 POWELL| Reached 100% of maximal function calls                    13.5249824107
 POWELL| Exceeding maximum number of steps
 POWELL| Reached 100% of maximal function calls                    13.5249824107
 POWELL| RMS average of variables                                   0.0000889034
 POWELL| Start optimization  13 of total 100               rhobeg =   0.00031389
 POWELL| Inital value of function                                  13.5249824107
 POWELL| Reached   6% of maximal function calls                    13.5249824107
 POWELL| Reached   8% of maximal function calls                    13.5249824107
 POWELL| Reached  10% of maximal function calls                    13.5249824107
 POWELL| Reached  12% of maximal function calls                    13.5249824107
 POWELL| Reached  14% of maximal function calls                    13.5174658308
 POWELL| Reached  16% of maximal function calls                    13.5174658308
 POWELL| Reached  18% of maximal function calls                    13.5174658308
 POWELL| Reached  20% of maximal function calls                    13.5174658308
 POWELL| Reached  22% of maximal function calls                    13.4840322589
 POWELL| Reached  24% of maximal function calls                    13.4840322589
 POWELL| Reached  26% of maximal function calls                    13.4840322589
 POWELL| Reached  28% of maximal function calls                    13.4840322589
 POWELL| Reached  30% of maximal function calls                    13.4840322589
 POWELL| Reached  32% of maximal function calls                    13.4840322589
 POWELL| Reached  34% of maximal function calls                    13.4840322589
 POWELL| Reached  36% of maximal function calls                    13.4840322589
 POWELL| Reached  38% of maximal function calls                    13.4840322589
 POWELL| Reached  40% of maximal function calls                    13.4840322589
 POWELL| Reached  42% of maximal function calls                    13.4840322589
 POWELL| Reached  44% of maximal function calls                    13.4840322589
 POWELL| Reached  46% of maximal function calls                    13.4840322589
 POWELL| Reached  48% of maximal function calls                    13.4840322589
 POWELL| Reached  50% of maximal function calls                    13.4840322589
 POWELL| Reached  52% of maximal function calls                    13.4840322589
 POWELL| Reached  54% of maximal function calls                    13.4840322589
 POWELL| Reached  56% of maximal function calls                    13.4840322589
 POWELL| Reached  57% of maximal function calls                    13.4840322589
 POWELL| Reached  60% of maximal function calls                    13.4337867569
 POWELL| Reached  62% of maximal function calls                    13.4279604151
 POWELL| Reached  64% of maximal function calls                    13.4279604151
 POWELL| Reached  66% of maximal function calls                    13.4276832495
 POWELL| Reached  68% of maximal function calls                    13.4275342648
 POWELL| Reached  70% of maximal function calls                    13.4275342648
 POWELL| Reached  72% of maximal function calls                    13.4275342648
 POWELL| Reached  74% of maximal function calls                    13.4275175106
 POWELL| Reached  76% of maximal function calls                    13.4275172032
 POWELL| Reached  78% of maximal function calls                    13.4275172032
 POWELL| Reached  80% of maximal function calls                    13.4275172032
 POWELL| Reached  82% of maximal function calls                    13.4274947446
 POWELL| Reached  84% of maximal function calls                    13.4274947446
 POWELL| Reached  86% of maximal function calls                    13.4274947446
 POWELL| Reached  88% of maximal function calls                    13.4274945596
 POWELL| Reached  90% of maximal function calls                    13.4274945596
 POWELL| Reached  92% of maximal function calls                    13.4274945577
 POWELL| Reached  94% of maximal function calls                    13.4274945411
 POWELL| Reached  96% of maximal function calls                    13.4274945411
 POWELL| Reached  98% of maximal function calls                    13.4274945411
 POWELL| Reached 100% of maximal function calls                    13.4274938377
 POWELL| Reached 100% of maximal function calls                    13.4274933598
 POWELL| Exceeding maximum number of steps
 POWELL| Reached 100% of maximal function calls                    13.4274933598
 POWELL| RMS average of variables                                   0.0000946184
 POWELL| Start optimization  14 of total 100               rhobeg =   0.00030761
 POWELL| Inital value of function                                  13.4274933598
 POWELL| Reached   6% of maximal function calls                    13.4274933598
 POWELL| Reached   8% of maximal function calls                    13.4274933598
 POWELL| Reached  10% of maximal function calls                    13.4274933598
 POWELL| Reached  12% of maximal function calls                    13.4274933598
 POWELL| Reached  14% of maximal function calls                    13.4274933598
 POWELL| Reached  16% of maximal function calls                    13.4274933598
 POWELL| Reached  18% of maximal function calls                    13.4274933598
 POWELL| Reached  20% of maximal function calls                    13.4274933598
 POWELL| Reached  22% of maximal function calls                    13.4274933598
 POWELL| Reached  24% of maximal function calls                    13.4274933598
 POWELL| Reached  26% of maximal function calls                    13.4274933598
 POWELL| Reached  28% of maximal function calls                    13.4274933598
 POWELL| Reached  30% of maximal function calls                    13.4274933598
 POWELL| Reached  32% of maximal function calls                    13.4274933598
 POWELL| Reached  34% of maximal function calls                    13.4255730150
 POWELL| Reached  36% of maximal function calls                    13.4255730150
 POWELL| Reached  38% of maximal function calls                    13.4255730150
 POWELL| Reached  40% of maximal function calls                    13.4255730150
 POWELL| Reached  42% of maximal function calls                    13.4255730150
 POWELL| Reached  44% of maximal function calls                    13.4016662965
 POWELL| Reached  46% of maximal function calls                    13.4016662965
 POWELL| Reached  48% of maximal function calls                    13.4016662965
 POWELL| Reached  50% of maximal function calls                    13.4016662965
 POWELL| Reached  52% of maximal function calls                    13.4016662965
 POWELL| Reached  54% of maximal function calls                    13.4016662965
 POWELL| Reached  56% of maximal function calls                    13.4016662965
 POWELL| Reached  57% of maximal function calls                    13.4016662965
 POWELL| Reached  60% of maximal function calls                    13.4016662965
 POWELL| Reached  62% of maximal function calls                    13.4016662965
 POWELL| Reached  64% of maximal function calls                    13.4016662965
 POWELL| Reached  66% of maximal function calls                    13.4016662965
 POWELL| Reached  68% of maximal function calls                    13.4012537962
 POWELL| Reached  70% of maximal function calls                    13.4012369596
 POWELL| Reached  72% of maximal function calls                    13.3985300488
 POWELL| Reached  74% of maximal function calls                    13.3966280296
 POWELL| Reached  76% of maximal function calls                    13.3965707832
 POWELL| Reached  78% of maximal function calls                    13.3965707832
 POWELL| Reached  80% of maximal function calls                    13.3964580796
 POWELL| Reached  82% of maximal function calls                    13.3964580796
 POWELL| Reached  84% of maximal function calls                    13.3964276766
 POWELL| Reached  86% of maximal function calls                    13.3964276766
 POWELL| Reached  88% of maximal function calls                    13.3964276766
 POWELL| Reached  90% of maximal function calls                    13.3964276766
 POWELL| Reached  92% of maximal function calls                    13.3964276766
 POWELL| Reached  94% of maximal function calls                    13.3964276766
 POWELL| Reached  96% of maximal function calls                    13.3964276766
 POWELL| Reached  98% of maximal function calls                    13.3964243480
 POWELL| Reached 100% of maximal function calls                    13.3964243480
 POWELL| Reached 100% of maximal function calls                    13.3964243480
 POWELL| Exceeding maximum number of steps
 POWELL| Reached 100% of maximal function calls                    13.3964243480
 POWELL| RMS average of variables                                   0.0000854522
 POWELL| Start optimization  15 of total 100               rhobeg =   0.00030146
 POWELL| Inital value of function                                  13.3964243480
 POWELL| Reached   6% of maximal function calls                    13.3964243480
 POWELL| Reached   8% of maximal function calls                    13.3964243480
 POWELL| Reached  10% of maximal function calls                    13.3964243480
 POWELL| Reached  12% of maximal function calls                    13.3964243480
 POWELL| Reached  14% of maximal function calls                    13.3759410182
 POWELL| Reached  16% of maximal function calls                    13.3759410182
 POWELL| Reached  18% of maximal function calls                    13.3759410182
 POWELL| Reached  20% of maximal function calls                    13.3759410182
 POWELL| Reached  22% of maximal function calls                    13.3759410182
 POWELL| Reached  24% of maximal function calls                    13.3753323280
 POWELL| Reached  26% of maximal function calls                    13.3753323280
 POWELL| Reached  28% of maximal function calls                    13.3753323280
 POWELL| Reached  30% of maximal function calls                    13.3753323280
 POWELL| Reached  32% of maximal function calls                    13.3753323280
 POWELL| Reached  34% of maximal function calls                    13.3713874859
 POWELL| Reached  36% of maximal function calls                    13.3713874859
 POWELL| Reached  38% of maximal function calls                    13.3713874859
 POWELL| Reached  40% of maximal function calls                    13.3713874859
 POWELL| Reached  42% of maximal function calls                    13.3713874859
 POWELL| Reached  44% of maximal function calls                    13.3713874859
 POWELL| Reached  46% of maximal function calls                    13.3713874859
 POWELL| Reached  48% of maximal function calls                    13.3713874859
 POWELL| Reached  50% of maximal function calls                    13.3713874859
 POWELL| Reached  52% of maximal function calls                    13.3713874859
 POWELL| Reached  54% of maximal function calls                    13.3713874859
 POWELL| Reached  56% of maximal function calls                    13.3713874859
 POWELL| Reached  57% of maximal function calls                    13.3696653356
 POWELL| Reached  60% of maximal function calls                    13.3696653356
 POWELL| Reached  62% of maximal function calls                    13.3696653356
 POWELL| Reached  64% of maximal function calls                    13.3696653356
 POWELL| Reached  66% of maximal function calls                    13.3694271635
 POWELL| Reached  68% of maximal function calls                    13.3691450290
 POWELL| Reached  70% of maximal function calls                    13.3683618189
 POWELL| Reached  72% of maximal function calls                    13.3678788630
 POWELL| Reached  74% of maximal function calls                    13.3678788630
 POWELL| Reached  76% of maximal function calls                    13.3678788630
 POWELL| Reached  78% of maximal function calls                    13.3676355461
 POWELL| Reached  80% of maximal function calls                    13.3676355461
 POWELL| Reached  82% of maximal function calls                    13.3676355461
 POWELL| Reached  84% of maximal function calls                    13.3676288982
 POWELL| Reached  86% of maximal function calls                    13.3676245964
 POWELL| Reached  88% of maximal function calls                    13.3676199128
 POWELL| Reached  90% of maximal function calls                    13.3676199128
 POWELL| Reached  92% of maximal function calls                    13.3676196560
 POWELL| Reached  94% of maximal function calls                    13.3676196560
 POWELL| Reached  96% of maximal function calls                    13.3676196483
 POWELL| Reached  98% of maximal function calls                    13.3675751987
 POWELL| Reached 100% of maximal function calls                    13.3675571591
 POWELL| Reached 100% of maximal function calls                    13.3675571591
 POWELL| Exceeding maximum number of steps
 POWELL| Reached 100% of maximal function calls                    13.3675571591
 POWELL| RMS average of variables                                   0.0000926058
 POWELL| Start optimization  16 of total 100               rhobeg =   0.00029543
 POWELL| Inital value of function                                  13.3675571591
 POWELL| Reached   6% of maximal function calls                    13.3675571591
 POWELL| Reached   8% of maximal function calls                    13.3675571591
 POWELL| Reached  10% of maximal function calls                    13.3675571591
 POWELL| Reached  12% of maximal function calls                    13.3675571591
 POWELL| Reached  14% of maximal function calls                    13.3651947287
 POWELL| Reached  16% of maximal function calls                    13.3651947287
 POWELL| Reached  18% of maximal function calls                    13.3651947287
 POWELL| Reached  20% of maximal function calls                    13.3651947287
 POWELL| Reached  22% of maximal function calls                    13.3651947287
 POWELL| Reached  24% of maximal function calls                    13.3651947287
 POWELL| Reached  26% of maximal function calls                    13.3651947287
 POWELL| Reached  28% of maximal function calls                    13.3651947287
 POWELL| Reached  30% of maximal function calls                    13.3651947287
 POWELL| Reached  32% of maximal function calls                    13.3651947287
 POWELL| Reached  34% of maximal function calls                    13.3613968903
 POWELL| Reached  36% of maximal function calls                    13.3613968903
 POWELL| Reached  38% of maximal function calls                    13.3613968903
 POWELL| Reached  40% of maximal function calls                    13.3613968903
 POWELL| Reached  42% of maximal function calls                    13.3613968903
 POWELL| Reached  44% of maximal function calls                    13.3613968903
 POWELL| Reached  46% of maximal function calls                    13.3613968903
 POWELL| Reached  48% of maximal function calls                    13.3613968903
 POWELL| Reached  50% of maximal function calls                    13.3613968903
 POWELL| Reached  52% of maximal function calls                    13.3613968903
 POWELL| Reached  54% of maximal function calls                    13.3613968903
 POWELL| Reached  56% of maximal function calls                    13.3613968903
[...]
 POWELL| RMS average of variables                                   0.0000160325
 POWELL| Start optimization  98 of total 100               rhobeg =   0.00005636
 POWELL| Inital value of function                                  10.6275961425
 POWELL| Reached   6% of maximal function calls                    10.6275961425
 POWELL| Reached   8% of maximal function calls                    10.6275961425
 POWELL| Reached  10% of maximal function calls                    10.6232380149
 POWELL| Reached  12% of maximal function calls                    10.6232380149
 POWELL| Reached  14% of maximal function calls                    10.6232380149
 POWELL| Reached  16% of maximal function calls                    10.6232380149
 POWELL| Reached  18% of maximal function calls                    10.6232380149
 POWELL| Reached  20% of maximal function calls                    10.6232380149
 POWELL| Reached  22% of maximal function calls                    10.6232380149
 POWELL| Reached  24% of maximal function calls                    10.6232380149
 POWELL| Reached  26% of maximal function calls                    10.6232380149
 POWELL| Reached  28% of maximal function calls                    10.6232380149
 POWELL| Reached  30% of maximal function calls                    10.6232380149
 POWELL| Reached  32% of maximal function calls                    10.6232380149
 POWELL| Reached  34% of maximal function calls                    10.6232380149
 POWELL| Reached  36% of maximal function calls                    10.6232380149
 POWELL| Reached  38% of maximal function calls                    10.5921276548
 POWELL| Reached  40% of maximal function calls                    10.5921276548
 POWELL| Reached  42% of maximal function calls                    10.5921276548
 POWELL| Reached  44% of maximal function calls                    10.5921276548
 POWELL| Reached  46% of maximal function calls                    10.5921276548
 POWELL| Reached  48% of maximal function calls                    10.5921276548
 POWELL| Reached  50% of maximal function calls                    10.5921276548
 POWELL| Reached  52% of maximal function calls                    10.5921276548
 POWELL| Reached  54% of maximal function calls                    10.5921276548
 POWELL| Reached  56% of maximal function calls                    10.5921276548
 POWELL| Reached  57% of maximal function calls                    10.5921276548
 POWELL| Reached  60% of maximal function calls                    10.5921276548
 POWELL| Reached  62% of maximal function calls                    10.5921276548
 POWELL| Reached  64% of maximal function calls                    10.5921276548
 POWELL| Reached  66% of maximal function calls                    10.5920460453
 POWELL| Reached  68% of maximal function calls                    10.5920460453
 POWELL| Reached  70% of maximal function calls                    10.5914192270
 POWELL| Reached  72% of maximal function calls                    10.5909666609
 POWELL| Reached  74% of maximal function calls                    10.5909597576
 POWELL| Reached  76% of maximal function calls                    10.5909588547
 POWELL| Reached  78% of maximal function calls                    10.5909588547
 POWELL| Reached  80% of maximal function calls                    10.5909537238
 POWELL| Reached  82% of maximal function calls                    10.5909537238
 POWELL| Reached  84% of maximal function calls                    10.5909474178
 POWELL| Reached  86% of maximal function calls                    10.5909474178
 POWELL| Reached  88% of maximal function calls                    10.5909352058
 POWELL| Reached  90% of maximal function calls                    10.5909334283
 POWELL| Reached  92% of maximal function calls                    10.5909334283
 POWELL| Reached  94% of maximal function calls                    10.5909334283
 POWELL| Reached  96% of maximal function calls                    10.5909334283
 POWELL| Reached  98% of maximal function calls                    10.5908774824
 POWELL| Reached 100% of maximal function calls                    10.5908696649
 POWELL| Reached 100% of maximal function calls                    10.5908057638
 POWELL| Exceeding maximum number of steps
 POWELL| Reached 100% of maximal function calls                    10.5908057638
 POWELL| RMS average of variables                                   0.0000156439
 POWELL| Start optimization  99 of total 100               rhobeg =   0.00005524
 POWELL| Inital value of function                                  10.5908057638
 POWELL| Reached   6% of maximal function calls                    10.5908057638
 POWELL| Reached   8% of maximal function calls                    10.5908057638
 POWELL| Reached  10% of maximal function calls                    10.5908057638
 POWELL| Reached  12% of maximal function calls                    10.5908057638
 POWELL| Reached  14% of maximal function calls                    10.5835026532
 POWELL| Reached  16% of maximal function calls                    10.5835026532
 POWELL| Reached  18% of maximal function calls                    10.5835026532
 POWELL| Reached  20% of maximal function calls                    10.5835026532
 POWELL| Reached  22% of maximal function calls                    10.5535959826
 POWELL| Reached  24% of maximal function calls                    10.5535959826
 POWELL| Reached  26% of maximal function calls                    10.5535959826
 POWELL| Reached  28% of maximal function calls                    10.5535959826
 POWELL| Reached  30% of maximal function calls                    10.5535959826
 POWELL| Reached  32% of maximal function calls                    10.5535959826
 POWELL| Reached  34% of maximal function calls                    10.5535959826
 POWELL| Reached  36% of maximal function calls                    10.5535959826
 POWELL| Reached  38% of maximal function calls                    10.5535959826
 POWELL| Reached  40% of maximal function calls                    10.5535959826
 POWELL| Reached  42% of maximal function calls                    10.5535959826
 POWELL| Reached  44% of maximal function calls                    10.5535959826
 POWELL| Reached  46% of maximal function calls                    10.5535959826
 POWELL| Reached  48% of maximal function calls                    10.5535959826
 POWELL| Reached  50% of maximal function calls                    10.5535959826
 POWELL| Reached  52% of maximal function calls                    10.5535959826
 POWELL| Reached  54% of maximal function calls                    10.5535959826
 POWELL| Reached  56% of maximal function calls                    10.5535959826
 POWELL| Reached  57% of maximal function calls                    10.5505435976
 POWELL| Reached  60% of maximal function calls                    10.5505435976
 POWELL| Reached  62% of maximal function calls                    10.5505435976
 POWELL| Reached  64% of maximal function calls                    10.5505435976
 POWELL| Reached  66% of maximal function calls                    10.5505435976
 POWELL| Reached  68% of maximal function calls                    10.5504836878
 POWELL| Reached  70% of maximal function calls                    10.5504547154
 POWELL| Reached  72% of maximal function calls                    10.5500857506
 POWELL| Reached  74% of maximal function calls                    10.5498016678
 POWELL| Reached  76% of maximal function calls                    10.5498014389
 POWELL| Reached  78% of maximal function calls                    10.5497992196
 POWELL| Reached  80% of maximal function calls                    10.5497948563
 POWELL| Reached  82% of maximal function calls                    10.5497948563
 POWELL| Reached  84% of maximal function calls                    10.5497904624
 POWELL| Reached  86% of maximal function calls                    10.5497904624
 POWELL| Reached  88% of maximal function calls                    10.5497904624
 POWELL| Reached  90% of maximal function calls                    10.5497904624
 POWELL| Reached  92% of maximal function calls                    10.5497904624
 POWELL| Reached  94% of maximal function calls                    10.5497904624
 POWELL| Reached  96% of maximal function calls                    10.5497904624
 POWELL| Reached  98% of maximal function calls                    10.5497904624
 POWELL| Reached 100% of maximal function calls                    10.5497904624
 POWELL| Reached 100% of maximal function calls                    10.5497814269
 POWELL| Exceeding maximum number of steps
 POWELL| Reached 100% of maximal function calls                    10.5497814269
 POWELL| RMS average of variables                                   0.0000168779
 POWELL| Start optimization 100 of total 100               rhobeg =   0.00005413
 POWELL| Inital value of function                                  10.5497814269
 POWELL| Reached   6% of maximal function calls                    10.5497814269
 POWELL| Reached   8% of maximal function calls                    10.5497814269
 POWELL| Reached  10% of maximal function calls                    10.5497814269
 POWELL| Reached  12% of maximal function calls                    10.5497814269
 POWELL| Reached  14% of maximal function calls                    10.5445888819
 POWELL| Reached  16% of maximal function calls                    10.5445888819
 POWELL| Reached  18% of maximal function calls                    10.5445888819
 POWELL| Reached  20% of maximal function calls                    10.5445888819
 POWELL| Reached  22% of maximal function calls                    10.5267034324
 POWELL| Reached  24% of maximal function calls                    10.5267034324
 POWELL| Reached  26% of maximal function calls                    10.5267034324
 POWELL| Reached  28% of maximal function calls                    10.5267034324
 POWELL| Reached  30% of maximal function calls                    10.5267034324
 POWELL| Reached  32% of maximal function calls                    10.5267034324
 POWELL| Reached  34% of maximal function calls                    10.5267034324
 POWELL| Reached  36% of maximal function calls                    10.5267034324
 POWELL| Reached  38% of maximal function calls                    10.5267034324
 POWELL| Reached  40% of maximal function calls                    10.5267034324
 POWELL| Reached  42% of maximal function calls                    10.5267034324
 POWELL| Reached  44% of maximal function calls                    10.5267034324
 POWELL| Reached  46% of maximal function calls                    10.5267034324
 POWELL| Reached  48% of maximal function calls                    10.5267034324
 POWELL| Reached  50% of maximal function calls                    10.5267034324
 POWELL| Reached  52% of maximal function calls                    10.5267034324
 POWELL| Reached  54% of maximal function calls                    10.5267034324
 POWELL| Reached  56% of maximal function calls                    10.5267034324
 POWELL| Reached  57% of maximal function calls                    10.5250376690
 POWELL| Reached  60% of maximal function calls                    10.5250376690
 POWELL| Reached  62% of maximal function calls                    10.5250376690
 POWELL| Reached  64% of maximal function calls                    10.5250280277
 POWELL| Reached  66% of maximal function calls                    10.5249102894
 POWELL| Reached  68% of maximal function calls                    10.5249102894
 POWELL| Reached  70% of maximal function calls                    10.5249062739
 POWELL| Reached  72% of maximal function calls                    10.5248921963
 POWELL| Reached  74% of maximal function calls                    10.5248364796
 POWELL| Reached  76% of maximal function calls                    10.5248234864
 POWELL| Reached  78% of maximal function calls                    10.5248128808
 POWELL| Reached  80% of maximal function calls                    10.5248091447
 POWELL| Reached  82% of maximal function calls                    10.5248091447
 POWELL| Reached  84% of maximal function calls                    10.5248061973
 POWELL| Reached  86% of maximal function calls                    10.5248061973
 POWELL| Reached  88% of maximal function calls                    10.5248061973
 POWELL| Reached  90% of maximal function calls                    10.5248061973
 POWELL| Reached  92% of maximal function calls                    10.5248061973
 POWELL| Reached  94% of maximal function calls                    10.5248055626
 POWELL| Reached  96% of maximal function calls                    10.5248055626
 POWELL| Reached  98% of maximal function calls                    10.5248055096
 POWELL| Reached 100% of maximal function calls                    10.5248055096
 POWELL| Reached 100% of maximal function calls                    10.5248040568
 POWELL| Exceeding maximum number of steps
 POWELL| Reached 100% of maximal function calls                    10.5248040568
 POWELL| RMS average of variables                                   0.0000166292
 POWELL| Number of function evaluations                                       50
 POWELL| Final value of function                                   10.5248040568

 POWELL| Final errors of target values

 Reference configuration          1               Method number                1
    L    N    Occupation      Eigenvalue [eV]           dE [eV]          dCharge 
    0    1          2.00       -62.6025267039 SC  -0.019973[13]    -0.000038[ X]
    0    2          2.00        -4.4471539395 VA   0.003013[81]     0.001032[ 0]
    0    3          0.00         1.1935217743 U1  -0.002691[ X]     0.000671[ X]
    0    4          0.00         7.5147161268 U2  -0.014043[ X]     0.001388[ 0]
    1    1          6.00       -38.8123157198 SC   0.008838[ 1]    -0.000050[ X]
    1    2          0.00        -1.3879772455 U1   0.014593[ 3]    -0.001988[ X]
    1    3          0.00         2.7833454960 U2   0.014277[ X]    -0.000757[ 0]
    2    1          2.00        -4.2428092082 VA   0.000756[ 2]    -0.000030[ X]
    2    2          0.00         1.6617392579 U1   0.001313[ X]    -0.000125[ X]
    2    3          0.00         6.2198790958 U2   0.005881[ X]    -0.000765[ 0]
    3    1          0.00         3.4547327684 U1   0.000454[ X]    -0.000014[ X]
    s-states N=    1                   Wavefunction at r=0:        -0.011900[ 0]
    s-states N=    2                   Wavefunction at r=0:        -0.112903[ 0]
    s-states N=    3                   Wavefunction at r=0:        -0.077229[ 0]
    s-states N=    4                   Wavefunction at r=0:        -0.124847[ 0]

 Number of target values reached:                                      13 of  19



                             NORMAL TERMINATION OF     
                                                       
                           ****  ******  ****   ****   
                          **  ** ****** **  ** ******  
                          ******   **   **  ** **  **  
                          **  **   **    ****  **  **  


 -------------------------------------------------------------------------------
 -                                                                             -
 -                                DBCSR STATISTICS                             -
 -                                                                             -
 -------------------------------------------------------------------------------
 COUNTER                                    TOTAL       BLAS       SMM       ACC
 flops inhomo. stacks                           0       0.0%      0.0%      0.0%
 flops total                         0.000000E+00       0.0%      0.0%      0.0%
 flops max/rank                      0.000000E+00       0.0%      0.0%      0.0%
 matmuls inhomo. stacks                         0       0.0%      0.0%      0.0%
 matmuls total                                  0       0.0%      0.0%      0.0%
 number of processed stacks                     0       0.0%      0.0%      0.0%
 average stack size                                     0.0       0.0       0.0
 marketing flops                     0.000000E+00
 -------------------------------------------------------------------------------

 MEMORY| Estimated peak process memory [MiB]                                  49

 -------------------------------------------------------------------------------
 -                                                                             -
 -                           R E F E R E N C E S                               -
 -                                                                             -
 -------------------------------------------------------------------------------
 
 CP2K version 7.0 (Development Version), the CP2K developers group (2018).
 CP2K is freely available from https://www.cp2k.org/ .

 Schuett, Ole; Messmer, Peter; Hutter, Juerg; VandeVondele, Joost. 
 Electronic Structure Calculations on Graphics Processing Units, John Wiley & Sons, Ltd, 173-190 (2016). 
 GPU-Accelerated Sparse Matrix-Matrix Multiplication for Linear Scaling Density Functional Theory.
 http://dx.doi.org/10.1002/9781118670712.ch8


 Borstnik, U; VandeVondele, J; Weber, V; Hutter, J. 
 PARALLEL COMPUTING, 40 (5-6), 47-58 (2014). 
 Sparse matrix multiplication: The distributed block-compressed sparse
 row library.
 http://dx.doi.org/10.1016/j.parco.2014.03.012


 Hutter, J; Iannuzzi, M; Schiffmann, F; VandeVondele, J. 
 WILEY INTERDISCIPLINARY REVIEWS-COMPUTATIONAL MOLECULAR SCIENCE, 4 (1), 15-25 (2014). 
 CP2K: atomistic simulations of condensed matter systems.
 http://dx.doi.org/10.1002/wcms.1159


 Frigo, M; Johnson, SG. 
 PROCEEDINGS OF THE IEEE, 93 (2), 216-231 (2005). 
 The design and implementation of FFTW3.
 http://dx.doi.org/10.1109/JPROC.2004.840301


 Perdew, JP; Burke, K; Ernzerhof, M. 
 PHYSICAL REVIEW LETTERS, 77 (18), 3865-3868 (1996). 
 Generalized gradient approximation made simple.
 http://dx.doi.org/10.1103/PhysRevLett.77.3865


 -------------------------------------------------------------------------------
 -                                                                             -
 -                                T I M I N G                                  -
 -                                                                             -
 -------------------------------------------------------------------------------
 SUBROUTINE                       CALLS  ASD         SELF TIME        TOTAL TIME
                                MAXIMUM       AVERAGE  MAXIMUM  AVERAGE  MAXIMUM
 CP2K                                 1  1.0    0.002    0.002 1572.511 1572.511
 atom_code                            1  2.0    0.000    0.000 1572.508 1572.508
 atom_pseudo_opt                      1  3.0    9.429    9.429 1572.508 1572.508
 calculate_atom                    5661  4.0    0.016    0.016 1556.958 1556.958
 calculate_atom_restricted         5661  5.0  549.126  549.126 1556.942 1556.942
 calculate_atom_vxc_lda          271663  6.0  952.248  952.248 1007.816 1007.816
 xc_functional_eval              271663  7.0    0.647    0.647   55.289   55.289
 pbe_lda_eval                    271663  8.0   54.642   54.642   54.642   54.642
 -------------------------------------------------------------------------------

 The number of warnings for this run is : 0
 
 -------------------------------------------------------------------------------
  **** **** ******  **  PROGRAM ENDED AT                 2018-06-24 22:00:20.065
 ***** ** ***  *** **   PROGRAM RAN ON                                    tcpc01
 **    ****   ******    PROGRAM RAN BY                                    hutter
 ***** **    ** ** **   PROGRAM PROCESS ID                                  3371
  **** **  *******  **  PROGRAM STOPPED IN /data/hutter/pseudo/UZH2018/PBE/Ti/q1
                                           2
