
  **** **** ******  **  PROGRAM STARTED AT               2018-06-24 14:41:51.833
 ***** ** ***  *** **   PROGRAM STARTED ON                                tcpc01
 **    ****   ******    PROGRAM STARTED BY                                hutter
 ***** **    ** ** **   PROGRAM PROCESS ID                                 31736
  **** **  *******  **  PROGRAM STARTED IN /data/hutter/pseudo/UZH2018/PBE/Kr/q2
                                           6

 CP2K| version string:                    CP2K version 7.0 (Development Version)
 CP2K| source code revision number:                                    svn:18485
 CP2K| cp2kflags: libint fftw3 libxc libderiv_max_am1=5 libint_max_am=6 spglib  
 CP2K| is freely available from                            https://www.cp2k.org/
 CP2K| Program compiled at                         Wed Jun 20 10:41:43 CEST 2018
 CP2K| Program compiled on                                                tcpc01
 CP2K| Program compiled for                                                local
 CP2K| Data directory path                        /data/hutter/CURRENT/cp2k/data
 CP2K| Input file name                                                    Kr.inp

 GLOBAL| Method name                                                        ATOM
 GLOBAL| Project name                                                    PROJECT
 GLOBAL| Preferred FFT library                                             FFTW3
 GLOBAL| Preferred diagonalization lib.                                       SL
 GLOBAL| Run type                                                   ENERGY_FORCE
 GLOBAL| All-to-all communication in single precision                          F
 GLOBAL| FFTs using library dependent lengths                                  F
 GLOBAL| Global print level                                               MEDIUM
 GLOBAL| Total number of message passing processes                             1
 GLOBAL| Number of threads for this process                                    1
 GLOBAL| This output is from process                                           0
 GLOBAL| CPU model name :  Intel(R) Xeon(R) CPU           X5570  @ 2.93GHz

 MEMORY| system memory details [Kb]
 MEMORY|                        rank 0           min           max       average
 MEMORY| MemTotal             37009584      37009584      37009584      37009584
 MEMORY| MemFree              32327100      32327100      32327100      32327100
 MEMORY| Buffers                287628        287628        287628        287628
 MEMORY| Cached                2038192       2038192       2038192       2038192
 MEMORY| Slab                   271668        271668        271668        271668
 MEMORY| SReclaimable           203428        203428        203428        203428
 MEMORY| MemLikelyFree        34856348      34856348      34856348      34856348


 *** Fundamental physical constants (SI units) ***

 *** Literature: B. J. Mohr and B. N. Taylor,
 ***             CODATA recommended values of the fundamental physical
 ***             constants: 2006, Web Version 5.1
 ***             http://physics.nist.gov/constants

 Speed of light in vacuum [m/s]                             2.99792458000000E+08
 Magnetic constant or permeability of vacuum [N/A**2]       1.25663706143592E-06
 Electric constant or permittivity of vacuum [F/m]          8.85418781762039E-12
 Planck constant (h) [J*s]                                  6.62606896000000E-34
 Planck constant (h-bar) [J*s]                              1.05457162825177E-34
 Elementary charge [C]                                      1.60217648700000E-19
 Electron mass [kg]                                         9.10938215000000E-31
 Electron g factor [ ]                                     -2.00231930436220E+00
 Proton mass [kg]                                           1.67262163700000E-27
 Fine-structure constant                                    7.29735253760000E-03
 Rydberg constant [1/m]                                     1.09737315685270E+07
 Avogadro constant [1/mol]                                  6.02214179000000E+23
 Boltzmann constant [J/K]                                   1.38065040000000E-23
 Atomic mass unit [kg]                                      1.66053878200000E-27
 Bohr radius [m]                                            5.29177208590000E-11

 *** Conversion factors ***

 [u] -> [a.u.]                                              1.82288848426455E+03
 [Angstrom] -> [Bohr] = [a.u.]                              1.88972613288564E+00
 [a.u.] = [Bohr] -> [Angstrom]                              5.29177208590000E-01
 [a.u.] -> [s]                                              2.41888432650478E-17
 [a.u.] -> [fs]                                             2.41888432650478E-02
 [a.u.] -> [J]                                              4.35974393937059E-18
 [a.u.] -> [N]                                              8.23872205491840E-08
 [a.u.] -> [K]                                              3.15774647902944E+05
 [a.u.] -> [kJ/mol]                                         2.62549961709828E+03
 [a.u.] -> [kcal/mol]                                       6.27509468713739E+02
 [a.u.] -> [Pa]                                             2.94210107994716E+13
 [a.u.] -> [bar]                                            2.94210107994716E+08
 [a.u.] -> [atm]                                            2.90362800883016E+08
 [a.u.] -> [eV]                                             2.72113838565563E+01
 [a.u.] -> [Hz]                                             6.57968392072181E+15
 [a.u.] -> [1/cm] (wave numbers)                            2.19474631370540E+05
 [a.u./Bohr**2] -> [1/cm]                                   5.14048714338585E+03
 
 DBCSR| Multiplication driver                                               BLAS
 DBCSR| Multrec recursion limit                                              512
 DBCSR| Multiplication stack size                                           1000
 DBCSR| Maximum elements for images                                    UNLIMITED
 DBCSR| Multiplicative factor virtual images                                   1
 DBCSR| Multiplication size stacks                                             3



                           ****  ******  ****   ****   
                          **  ** ****** **  ** ******  
                          ******   **   **  ** **  **  
                          **  **   **    ****  **  **  
                                                       
                             University of Zurich      
                                 2009 - 2015           
                                                       
                                 Version 0.0           
                                                                   


 Atomic Energy Calculation             Krypton [Kr]          Atomic number:   36


 *******************************************************************************
 ************************** Calculate Reference States *************************
 *******************************************************************************

 METHOD    | Restricted Kohn-Sham Calculation
 METHOD    | Relativistic Calculation using Douglas-Kroll 3rd order
 FUNCTIONAL| ROUTINE=NEW
 FUNCTIONAL| PBE:
 FUNCTIONAL| J.P.Perdew, K.Burke, M.Ernzerhof, Phys. Rev. Letter, vol. 77, n 18,
 FUNCTIONAL|  pp. 3865-3868, (1996){spin unpolarized}                           

 Electronic structure
    Total number of core electrons                                          0.00
    Total number of valence electrons                                      36.00
    Total number of electrons                                              36.00
    Multiplicity                                                   not specified
    S      2.00  2.00  2.00  2.00
    P      6.00  6.00  6.00
    D     10.00


 *******************************************************************************
                  Iteration          Convergence                     Energy [au]
 *******************************************************************************
                          1         34.0659                   -2677.446180126660
                          2         19.9955                   -2557.818604878665
                          3         16.6493                   -2743.342025421746
                          4         2.56528                   -2786.813332711701
                          5        0.464801                   -2789.572806730230
                          6        0.206577                   -2789.707260133299
                          7        0.116414E-01               -2789.745913742660
                          8        0.858154E-03               -2789.745936797326
                          9        0.134948E-03               -2789.745937354220
                         10        0.509943E-05               -2789.745937367082
                         11        0.342148E-07               -2789.745937367082

 Energy components [Hartree]           Total Energy ::        -2789.745937367082
                                        Band Energy ::        -1635.343256669519
                                     Kinetic Energy ::         3007.359004905750
                                   Potential Energy ::        -5797.104942272832
                                      Virial (-V/T) ::            1.927639810484
                                        Core Energy ::        -3876.403565864267
                                          XC Energy ::          -96.978425953724
                                     Coulomb Energy ::         1183.636054450910
                                        Confinement ::            0.000000001240

 Orbital energies  State     L     Occupation   Energy[a.u.]          Energy[eV]

                       1     0          2.000    -519.672433       -14141.006058
                       2     0          2.000     -68.441224        -1862.380409
                       3     0          2.000      -9.690958         -263.704372
                       4     0          2.000      -0.846381          -23.031211
                       5     0          0.000      -0.007443           -0.202541
                       6     0          0.000       0.167847            4.567361

                       1     1          6.000     -60.517002        -1646.751385
                       2     1          6.000      -7.167109         -195.026954
                       3     1          6.000      -0.339722           -9.244300
                       4     1          0.000       0.047217            1.284831
                       5     1          0.000       0.229221            6.237419

                       1     2         10.000      -2.989826          -81.357316
                       2     2          0.000       0.079425            2.161275
                       3     2          0.000       0.201416            5.480796

                       1     3          0.000       0.162833            4.430920


 Total Electron Density at R=0:                                     89962.467271

 *******************************************************************************
 ********************* Optimize Pseudopotential Parameters *********************
 *******************************************************************************

 POWELL| Start optimization procedure

 POWELL| Total number of parameters in optimization                           13

 POWELL| Initial errors of target values

 Reference configuration          1               Method number                1
    L    N    Occupation      Eigenvalue [eV]           dE [eV]          dCharge 
    0    1          2.00      -263.9096792584 SC  -0.205307[13]    -0.000000[ X]
    0    2          2.00       -23.0213971452 VA   0.009814[ 7]     0.005096[ 0]
    0    3          0.00        -0.2336831516 U1  -0.031142[ 0]     0.014275[ 0]
    0    4          0.00         4.4579827301 U2  -0.109378[ 0]     0.010717[ 0]
    1    1          6.00      -195.0936568727 SC  -0.066703[ 1]     0.000000[ X]
    1    2          6.00        -9.2131435888 VA   0.031157[75]     0.014305[ 0]
    1    3          0.00         1.2731753596 U1  -0.011655[ 0]     0.007890[ 0]
    1    4          0.00         6.1428138635 U2  -0.094605[ 0]     0.009310[ 0]
    2    1         10.00       -81.3206803461 SC   0.036636[ 0]    -0.000005[ X]
    2    2          0.00         2.2818557904 U1   0.120580[ 2]    -0.018265[ 0]
    2    3          0.00         5.9206505450 U2   0.439854[ 0]    -0.052278[ 0]
    3    1          0.00         4.4537573038 U1   0.022837[ 0]    -0.000124[ X]

 Number of target values reached:                                       4 of  21

 POWELL| Start optimization   1 of total 100               rhobeg =   0.00100000
 POWELL| Inital value of function                                1395.1274884018
 POWELL| Reached   6% of maximal function calls                  1395.1274884018
 POWELL| Reached   8% of maximal function calls                  1395.1274884018
 POWELL| Reached  10% of maximal function calls                  1385.6414604030
 POWELL| Reached  12% of maximal function calls                  1385.6414604030
 POWELL| Reached  14% of maximal function calls                  1385.6414604030
 POWELL| Reached  16% of maximal function calls                  1385.6414604030
 POWELL| Reached  18% of maximal function calls                  1385.6414604030
 POWELL| Reached  20% of maximal function calls                  1385.6414604030
 POWELL| Reached  22% of maximal function calls                  1385.2515659164
 POWELL| Reached  24% of maximal function calls                  1385.2515659164
 POWELL| Reached  26% of maximal function calls                  1385.2515659164
 POWELL| Reached  28% of maximal function calls                  1383.7832885907
 POWELL| Reached  30% of maximal function calls                  1383.7832885907
 POWELL| Reached  32% of maximal function calls                  1383.7832885907
 POWELL| Reached  34% of maximal function calls                  1383.7832885907
 POWELL| Reached  36% of maximal function calls                  1383.7832885907
 POWELL| Reached  38% of maximal function calls                  1383.7832885907
 POWELL| Reached  40% of maximal function calls                  1383.7832885907
 POWELL| Reached  42% of maximal function calls                  1383.7832885907
 POWELL| Reached  44% of maximal function calls                  1383.7832885907
 POWELL| Reached  46% of maximal function calls                  1383.7832885907
 POWELL| Reached  48% of maximal function calls                  1383.7832885907
 POWELL| Reached  50% of maximal function calls                  1383.7832885907
 POWELL| Reached  52% of maximal function calls                  1383.7832885907
 POWELL| Reached  54% of maximal function calls                  1383.7832885907
 POWELL| Reached  56% of maximal function calls                  1383.7832885907
 POWELL| Reached  57% of maximal function calls                  1382.9352717277
 POWELL| Reached  60% of maximal function calls                  1382.9352717277
 POWELL| Reached  62% of maximal function calls                  1382.9352717277
 POWELL| Reached  64% of maximal function calls                  1382.8486753581
 POWELL| Reached  66% of maximal function calls                  1382.7297090712
 POWELL| Reached  68% of maximal function calls                  1382.7297090712
 POWELL| Reached  70% of maximal function calls                  1382.7297090712
 POWELL| Reached  72% of maximal function calls                  1382.7233077899
 POWELL| Reached  74% of maximal function calls                  1382.7132904599
 POWELL| Reached  76% of maximal function calls                  1382.7132904599
 POWELL| Reached  78% of maximal function calls                  1382.7099160310
 POWELL| Reached  80% of maximal function calls                  1382.7099160310
 POWELL| Reached  82% of maximal function calls                  1382.7099160310
 POWELL| Reached  84% of maximal function calls                  1382.7099160310
 POWELL| Reached  86% of maximal function calls                  1382.7041464946
 POWELL| Reached  88% of maximal function calls                  1382.7041464946
 POWELL| Reached  90% of maximal function calls                  1382.7034536161
 POWELL| Reached  92% of maximal function calls                  1382.7020146548
 POWELL| Reached  94% of maximal function calls                  1382.7020146548
 POWELL| Reached  96% of maximal function calls                  1382.7020146548
 POWELL| Reached  98% of maximal function calls                  1382.7019604413
 POWELL| Reached 100% of maximal function calls                  1382.7019604413
 POWELL| Reached 100% of maximal function calls                  1382.7010453439
 POWELL| Exceeding maximum number of steps
 POWELL| Reached 100% of maximal function calls                  1382.7010453439
 POWELL| RMS average of variables                                   0.0003072471
 POWELL| Start optimization   2 of total 100               rhobeg =   0.00097500
 POWELL| Inital value of function                                1382.7010453439
 POWELL| Reached   6% of maximal function calls                  1382.7010453439
 POWELL| Reached   8% of maximal function calls                  1382.7010453439
 POWELL| Reached  10% of maximal function calls                  1375.0020739948
 POWELL| Reached  12% of maximal function calls                  1375.0020739948
 POWELL| Reached  14% of maximal function calls                  1375.0020739948
 POWELL| Reached  16% of maximal function calls                  1375.0020739948
 POWELL| Reached  18% of maximal function calls                  1375.0020739948
 POWELL| Reached  20% of maximal function calls                  1375.0020739948
 POWELL| Reached  22% of maximal function calls                  1372.8412585382
 POWELL| Reached  24% of maximal function calls                  1372.8412585382
 POWELL| Reached  26% of maximal function calls                  1372.8412585382
 POWELL| Reached  28% of maximal function calls                  1372.8412585382
 POWELL| Reached  30% of maximal function calls                  1372.8412585382
 POWELL| Reached  32% of maximal function calls                  1372.8412585382
 POWELL| Reached  34% of maximal function calls                  1372.8412585382
 POWELL| Reached  36% of maximal function calls                  1372.8412585382
 POWELL| Reached  38% of maximal function calls                  1372.8412585382
 POWELL| Reached  40% of maximal function calls                  1372.8412585382
 POWELL| Reached  42% of maximal function calls                  1372.8412585382
 POWELL| Reached  44% of maximal function calls                  1372.8412585382
 POWELL| Reached  46% of maximal function calls                  1372.8412585382
 POWELL| Reached  48% of maximal function calls                  1372.8412585382
 POWELL| Reached  50% of maximal function calls                  1372.8412585382
 POWELL| Reached  52% of maximal function calls                  1372.8412585382
 POWELL| Reached  54% of maximal function calls                  1372.8412585382
 POWELL| Reached  56% of maximal function calls                  1372.8412585382
 POWELL| Reached  57% of maximal function calls                  1372.2786712445
 POWELL| Reached  60% of maximal function calls                  1372.2786712445
 POWELL| Reached  62% of maximal function calls                  1372.2786712445
 POWELL| Reached  64% of maximal function calls                  1372.2030594798
 POWELL| Reached  66% of maximal function calls                  1372.1140779435
 POWELL| Reached  68% of maximal function calls                  1372.1140779435
 POWELL| Reached  70% of maximal function calls                  1372.1140779435
 POWELL| Reached  72% of maximal function calls                  1372.1140779435
 POWELL| Reached  74% of maximal function calls                  1372.1140779435
 POWELL| Reached  76% of maximal function calls                  1372.1140779435
 POWELL| Reached  78% of maximal function calls                  1372.1140779435
 POWELL| Reached  80% of maximal function calls                  1372.1140779435
 POWELL| Reached  82% of maximal function calls                  1372.1134254143
 POWELL| Reached  84% of maximal function calls                  1372.1134254143
 POWELL| Reached  86% of maximal function calls                  1372.1132765434
 POWELL| Reached  88% of maximal function calls                  1372.1132765434
 POWELL| Reached  90% of maximal function calls                  1372.1132765434
 POWELL| Reached  92% of maximal function calls                  1372.1132765434
 POWELL| Reached  94% of maximal function calls                  1372.1132765434
 POWELL| Reached  96% of maximal function calls                  1372.1109600266
 POWELL| Reached  98% of maximal function calls                  1372.1042811845
 POWELL| Reached 100% of maximal function calls                  1372.1042811845
 POWELL| Reached 100% of maximal function calls                  1372.1042391596
 POWELL| Exceeding maximum number of steps
 POWELL| Reached 100% of maximal function calls                  1372.1042391596
 POWELL| RMS average of variables                                   0.0002993399
 POWELL| Start optimization   3 of total 100               rhobeg =   0.00095062
 POWELL| Inital value of function                                1372.1042391596
 POWELL| Reached   6% of maximal function calls                  1372.1042391596
 POWELL| Reached   8% of maximal function calls                  1372.1042391596
 POWELL| Reached  10% of maximal function calls                  1365.4040422320
 POWELL| Reached  12% of maximal function calls                  1365.4040422320
 POWELL| Reached  14% of maximal function calls                  1365.4040422320
 POWELL| Reached  16% of maximal function calls                  1365.4040422320
 POWELL| Reached  18% of maximal function calls                  1365.4040422320
 POWELL| Reached  20% of maximal function calls                  1365.4040422320
 POWELL| Reached  22% of maximal function calls                  1365.4040422320
 POWELL| Reached  24% of maximal function calls                  1365.4040422320
 POWELL| Reached  26% of maximal function calls                  1365.4040422320
 POWELL| Reached  28% of maximal function calls                  1365.4040422320
 POWELL| Reached  30% of maximal function calls                  1365.4040422320
 POWELL| Reached  32% of maximal function calls                  1365.4040422320
 POWELL| Reached  34% of maximal function calls                  1365.4040422320
 POWELL| Reached  36% of maximal function calls                  1365.4040422320
 POWELL| Reached  38% of maximal function calls                  1365.4040422320
 POWELL| Reached  40% of maximal function calls                  1365.4040422320
 POWELL| Reached  42% of maximal function calls                  1365.4040422320
 POWELL| Reached  44% of maximal function calls                  1359.5953179725
 POWELL| Reached  46% of maximal function calls                  1359.5953179725
 POWELL| Reached  48% of maximal function calls                  1359.5953179725
 POWELL| Reached  50% of maximal function calls                  1359.5953179725
 POWELL| Reached  52% of maximal function calls                  1359.5953179725
 POWELL| Reached  54% of maximal function calls                  1359.5953179725
 POWELL| Reached  56% of maximal function calls                  1359.5953179725
 POWELL| Reached  57% of maximal function calls                  1358.7185968824
 POWELL| Reached  60% of maximal function calls                  1358.7185968824
 POWELL| Reached  62% of maximal function calls                  1358.7185968824
 POWELL| Reached  64% of maximal function calls                  1358.6459636960
 POWELL| Reached  66% of maximal function calls                  1358.5355442207
 POWELL| Reached  68% of maximal function calls                  1358.5355442207
 POWELL| Reached  70% of maximal function calls                  1358.5355442207
 POWELL| Reached  72% of maximal function calls                  1358.5329744364
 POWELL| Reached  74% of maximal function calls                  1358.5254871548
 POWELL| Reached  76% of maximal function calls                  1358.5254871548
 POWELL| Reached  78% of maximal function calls                  1358.5222998153
 POWELL| Reached  80% of maximal function calls                  1358.5222998153
 POWELL| Reached  82% of maximal function calls                  1358.5222998153
 POWELL| Reached  84% of maximal function calls                  1358.5222998153
 POWELL| Reached  86% of maximal function calls                  1358.5161966512
 POWELL| Reached  88% of maximal function calls                  1358.5161966512
 POWELL| Reached  90% of maximal function calls                  1358.5161966512
 POWELL| Reached  92% of maximal function calls                  1358.5161966512
 POWELL| Reached  94% of maximal function calls                  1358.5161966512
 POWELL| Reached  96% of maximal function calls                  1358.5156270196
 POWELL| Reached  98% of maximal function calls                  1358.5152860112
 POWELL| Reached 100% of maximal function calls                  1358.5152860112
 POWELL| Reached 100% of maximal function calls                  1358.5145518804
 POWELL| Exceeding maximum number of steps
 POWELL| Reached 100% of maximal function calls                  1358.5145518804
 POWELL| RMS average of variables                                   0.0002920751
 POWELL| Start optimization   4 of total 100               rhobeg =   0.00092686
 POWELL| Inital value of function                                1358.5145518804
 POWELL| Reached   6% of maximal function calls                  1358.5145518804
 POWELL| Reached   8% of maximal function calls                  1358.5145518804
 POWELL| Reached  10% of maximal function calls                  1352.0448043089
 POWELL| Reached  12% of maximal function calls                  1352.0448043089
 POWELL| Reached  14% of maximal function calls                  1352.0448043089
 POWELL| Reached  16% of maximal function calls                  1352.0448043089
 POWELL| Reached  18% of maximal function calls                  1352.0448043089
 POWELL| Reached  20% of maximal function calls                  1352.0448043089
 POWELL| Reached  22% of maximal function calls                  1350.1482519717
 POWELL| Reached  24% of maximal function calls                  1350.1482519717
 POWELL| Reached  26% of maximal function calls                  1350.1482519717
 POWELL| Reached  28% of maximal function calls                  1350.1482519717
 POWELL| Reached  30% of maximal function calls                  1350.1482519717
 POWELL| Reached  32% of maximal function calls                  1350.1482519717
 POWELL| Reached  34% of maximal function calls                  1350.1482519717
 POWELL| Reached  36% of maximal function calls                  1350.1482519717
 POWELL| Reached  38% of maximal function calls                  1350.1482519717
 POWELL| Reached  40% of maximal function calls                  1350.1482519717
 POWELL| Reached  42% of maximal function calls                  1350.1482519717
 POWELL| Reached  44% of maximal function calls                  1350.1482519717
 POWELL| Reached  46% of maximal function calls                  1350.1482519717
 POWELL| Reached  48% of maximal function calls                  1350.1482519717
 POWELL| Reached  50% of maximal function calls                  1350.1482519717
 POWELL| Reached  52% of maximal function calls                  1350.1482519717
 POWELL| Reached  54% of maximal function calls                  1350.1482519717
 POWELL| Reached  56% of maximal function calls                  1350.1482519717
 POWELL| Reached  57% of maximal function calls                  1349.5260654058
 POWELL| Reached  60% of maximal function calls                  1349.5260654058
 POWELL| Reached  62% of maximal function calls                  1349.5260654058
 POWELL| Reached  64% of maximal function calls                  1349.5260654058
 POWELL| Reached  66% of maximal function calls                  1349.5260654058
 POWELL| Reached  68% of maximal function calls                  1349.5260654058
 POWELL| Reached  70% of maximal function calls                  1349.5260654058
 POWELL| Reached  72% of maximal function calls                  1349.5260654058
 POWELL| Reached  74% of maximal function calls                  1349.5260654058
 POWELL| Reached  76% of maximal function calls                  1349.5260654058
 POWELL| Reached  78% of maximal function calls                  1349.5260654058
 POWELL| Reached  80% of maximal function calls                  1349.5260654058
 POWELL| Reached  82% of maximal function calls                  1349.5260654058
 POWELL| Reached  84% of maximal function calls                  1349.5260654058
 POWELL| Reached  86% of maximal function calls                  1349.5260654058
 POWELL| Reached  88% of maximal function calls                  1349.5260654058
 POWELL| Reached  90% of maximal function calls                  1349.5260654058
 POWELL| Reached  92% of maximal function calls                  1349.5260654058
 POWELL| Reached  94% of maximal function calls                  1349.5260654058
 POWELL| Reached  96% of maximal function calls                  1349.5260654058
 POWELL| Reached  98% of maximal function calls                  1349.5260654058
 POWELL| Reached 100% of maximal function calls                  1349.5260654058
 POWELL| Reached 100% of maximal function calls                  1349.5260654058
 POWELL| Exceeding maximum number of steps
 POWELL| Reached 100% of maximal function calls                  1349.5260654058
 POWELL| RMS average of variables                                   0.0002827710
 POWELL| Start optimization   5 of total 100               rhobeg =   0.00090369
 POWELL| Inital value of function                                1349.5260654058
 POWELL| Reached   6% of maximal function calls                  1349.5260654058
 POWELL| Reached   8% of maximal function calls                  1349.5260654058
 POWELL| Reached  10% of maximal function calls                  1343.9787116817
 POWELL| Reached  12% of maximal function calls                  1343.9787116817
 POWELL| Reached  14% of maximal function calls                  1343.9787116817
 POWELL| Reached  16% of maximal function calls                  1343.9787116817
 POWELL| Reached  18% of maximal function calls                  1343.9787116817
 POWELL| Reached  20% of maximal function calls                  1343.9787116817
 POWELL| Reached  22% of maximal function calls                  1343.9787116817
 POWELL| Reached  24% of maximal function calls                  1343.9787116817
 POWELL| Reached  26% of maximal function calls                  1343.9787116817
 POWELL| Reached  28% of maximal function calls                  1343.9787116817
 POWELL| Reached  30% of maximal function calls                  1343.9787116817
 POWELL| Reached  32% of maximal function calls                  1338.1588948767
 POWELL| Reached  34% of maximal function calls                  1338.1588948767
 POWELL| Reached  36% of maximal function calls                  1338.1588948767
 POWELL| Reached  38% of maximal function calls                  1338.1588948767
 POWELL| Reached  40% of maximal function calls                  1338.1588948767
 POWELL| Reached  42% of maximal function calls                  1338.1588948767
 POWELL| Reached  44% of maximal function calls                  1338.0896221402
 POWELL| Reached  46% of maximal function calls                  1338.0896221402
 POWELL| Reached  48% of maximal function calls                  1338.0896221402
 POWELL| Reached  50% of maximal function calls                  1338.0896221402
 POWELL| Reached  52% of maximal function calls                  1338.0896221402
 POWELL| Reached  54% of maximal function calls                  1338.0896221402
 POWELL| Reached  56% of maximal function calls                  1338.0896221402
 POWELL| Reached  57% of maximal function calls                  1337.2837503654
 POWELL| Reached  60% of maximal function calls                  1337.2837503654
 POWELL| Reached  62% of maximal function calls                  1337.2837503654
 POWELL| Reached  64% of maximal function calls                  1337.2228469736
 POWELL| Reached  66% of maximal function calls                  1337.1255584756
 POWELL| Reached  68% of maximal function calls                  1337.1255584756
 POWELL| Reached  70% of maximal function calls                  1337.1255584756
 POWELL| Reached  72% of maximal function calls                  1337.1255584756
 POWELL| Reached  74% of maximal function calls                  1337.1255584756
 POWELL| Reached  76% of maximal function calls                  1337.1255584756
 POWELL| Reached  78% of maximal function calls                  1337.1149747979
 POWELL| Reached  80% of maximal function calls                  1337.1149747979
 POWELL| Reached  82% of maximal function calls                  1337.1149747979
 POWELL| Reached  84% of maximal function calls                  1337.1149747979
 POWELL| Reached  86% of maximal function calls                  1337.1149747979
 POWELL| Reached  88% of maximal function calls                  1337.1149747979
 POWELL| Reached  90% of maximal function calls                  1337.1098769279
 POWELL| Reached  92% of maximal function calls                  1337.0848446041
 POWELL| Reached  94% of maximal function calls                  1337.0819827868
 POWELL| Reached  96% of maximal function calls                  1337.0819827868
 POWELL| Reached  98% of maximal function calls                  1337.0819827868
 POWELL| Reached 100% of maximal function calls                  1337.0751494008
 POWELL| Reached 100% of maximal function calls                  1337.0751494008
 POWELL| Exceeding maximum number of steps
 POWELL| Reached 100% of maximal function calls                  1337.0751494008
 POWELL| RMS average of variables                                   0.0002776872
 POWELL| Start optimization   6 of total 100               rhobeg =   0.00088110
 POWELL| Inital value of function                                1337.0751494008
 POWELL| Reached   6% of maximal function calls                  1337.0751494008
 POWELL| Reached   8% of maximal function calls                  1337.0751494008
 POWELL| Reached  10% of maximal function calls                  1331.7413535388
 POWELL| Reached  12% of maximal function calls                  1331.7413535388
 POWELL| Reached  14% of maximal function calls                  1331.7413535388
 POWELL| Reached  16% of maximal function calls                  1331.7413535388
 POWELL| Reached  18% of maximal function calls                  1331.7413535388
 POWELL| Reached  20% of maximal function calls                  1331.7413535388
 POWELL| Reached  22% of maximal function calls                  1329.7832183588
 POWELL| Reached  24% of maximal function calls                  1329.7832183588
 POWELL| Reached  26% of maximal function calls                  1329.7832183588
 POWELL| Reached  28% of maximal function calls                  1329.7832183588
 POWELL| Reached  30% of maximal function calls                  1329.7832183588
 POWELL| Reached  32% of maximal function calls                  1329.7832183588
 POWELL| Reached  34% of maximal function calls                  1329.7832183588
 POWELL| Reached  36% of maximal function calls                  1329.7832183588
 POWELL| Reached  38% of maximal function calls                  1329.7832183588
 POWELL| Reached  40% of maximal function calls                  1329.7832183588
 POWELL| Reached  42% of maximal function calls                  1329.7832183588
 POWELL| Reached  44% of maximal function calls                  1329.7832183588
 POWELL| Reached  46% of maximal function calls                  1329.7832183588
 POWELL| Reached  48% of maximal function calls                  1329.7832183588
 POWELL| Reached  50% of maximal function calls                  1329.7832183588
 POWELL| Reached  52% of maximal function calls                  1329.7832183588
 POWELL| Reached  54% of maximal function calls                  1329.7832183588
 POWELL| Reached  56% of maximal function calls                  1329.7832183588
 POWELL| Reached  57% of maximal function calls                  1329.3995036793
 POWELL| Reached  60% of maximal function calls                  1329.3995036793
 POWELL| Reached  62% of maximal function calls                  1329.3995036793
 POWELL| Reached  64% of maximal function calls                  1329.3464434271
 POWELL| Reached  66% of maximal function calls                  1329.2838478236
 POWELL| Reached  68% of maximal function calls                  1329.2838478236
 POWELL| Reached  70% of maximal function calls                  1329.2838478236
 POWELL| Reached  72% of maximal function calls                  1329.2838478236
 POWELL| Reached  74% of maximal function calls                  1329.2838478236
 POWELL| Reached  76% of maximal function calls                  1329.2838478236
 POWELL| Reached  78% of maximal function calls                  1329.2838478236
 POWELL| Reached  80% of maximal function calls                  1329.2838478236
 POWELL| Reached  82% of maximal function calls                  1329.2833435586
 POWELL| Reached  84% of maximal function calls                  1329.2833435586
 POWELL| Reached  86% of maximal function calls                  1329.2833435586
 POWELL| Reached  88% of maximal function calls                  1329.2833435586
 POWELL| Reached  90% of maximal function calls                  1329.2830229639
 POWELL| Reached  92% of maximal function calls                  1329.2830229639
 POWELL| Reached  94% of maximal function calls                  1329.2830229639
 POWELL| Reached  96% of maximal function calls                  1329.2830229639
 POWELL| Reached  98% of maximal function calls                  1329.2826839308
 POWELL| Reached 100% of maximal function calls                  1329.2826839308
 POWELL| Reached 100% of maximal function calls                  1329.2801090476
 POWELL| Exceeding maximum number of steps
 POWELL| Reached 100% of maximal function calls                  1329.2801090476
 POWELL| RMS average of variables                                   0.0002705522
 POWELL| Start optimization   7 of total 100               rhobeg =   0.00085907
 POWELL| Inital value of function                                1329.2801090476
 POWELL| Reached   6% of maximal function calls                  1329.2801090476
 POWELL| Reached   8% of maximal function calls                  1329.2801090476
 POWELL| Reached  10% of maximal function calls                  1324.7634486671
 POWELL| Reached  12% of maximal function calls                  1324.7634486671
 POWELL| Reached  14% of maximal function calls                  1324.7634486671
 POWELL| Reached  16% of maximal function calls                  1324.7634486671
 POWELL| Reached  18% of maximal function calls                  1324.7634486671
 POWELL| Reached  20% of maximal function calls                  1324.7634486671
 POWELL| Reached  22% of maximal function calls                  1324.7634486671
 POWELL| Reached  24% of maximal function calls                  1324.7634486671
 POWELL| Reached  26% of maximal function calls                  1324.7634486671
 POWELL| Reached  28% of maximal function calls                  1324.5716300470
 POWELL| Reached  30% of maximal function calls                  1324.5716300470
 POWELL| Reached  32% of maximal function calls                  1311.4615987794
 POWELL| Reached  34% of maximal function calls                  1311.4615987794
 POWELL| Reached  36% of maximal function calls                  1311.4615987794
 POWELL| Reached  38% of maximal function calls                  1311.4615987794
 POWELL| Reached  40% of maximal function calls                  1311.4615987794
 POWELL| Reached  42% of maximal function calls                  1311.4615987794
 POWELL| Reached  44% of maximal function calls                  1311.4615987794
 POWELL| Reached  46% of maximal function calls                  1311.4615987794
 POWELL| Reached  48% of maximal function calls                  1311.4615987794
 POWELL| Reached  50% of maximal function calls                  1311.4615987794
 POWELL| Reached  52% of maximal function calls                  1311.4615987794
 POWELL| Reached  54% of maximal function calls                  1311.4615987794
 POWELL| Reached  56% of maximal function calls                  1311.4615987794
 POWELL| Reached  57% of maximal function calls                  1311.4615987794
 POWELL| Reached  60% of maximal function calls                  1311.3313910459
 POWELL| Reached  62% of maximal function calls                  1311.3313910459
 POWELL| Reached  64% of maximal function calls                  1311.2052748602
 POWELL| Reached  66% of maximal function calls                  1311.2052748602
 POWELL| Reached  68% of maximal function calls                  1310.5210269094
 POWELL| Reached  70% of maximal function calls                  1310.5210269094
 POWELL| Reached  72% of maximal function calls                  1310.4379434104
 POWELL| Reached  74% of maximal function calls                  1310.4080389323
 POWELL| Reached  76% of maximal function calls                  1310.4080389323
 POWELL| Reached  78% of maximal function calls                  1310.4080389323
 POWELL| Reached  80% of maximal function calls                  1310.3596717402
 POWELL| Reached  82% of maximal function calls                  1310.3596717402
 POWELL| Reached  84% of maximal function calls                  1310.3596717402
 POWELL| Reached  86% of maximal function calls                  1310.3588186877
 POWELL| Reached  88% of maximal function calls                  1310.3588186877
 POWELL| Reached  90% of maximal function calls                  1310.3565595586
 POWELL| Reached  92% of maximal function calls                  1310.3565595586
 POWELL| Reached  94% of maximal function calls                  1310.3553014698
 POWELL| Reached  96% of maximal function calls                  1310.3544952573
 POWELL| Reached  98% of maximal function calls                  1310.3544952573
 POWELL| Reached 100% of maximal function calls                  1310.3464906144
 POWELL| Reached 100% of maximal function calls                  1310.3464906144
 POWELL| Exceeding maximum number of steps
 POWELL| Reached 100% of maximal function calls                  1310.3464906144
 POWELL| RMS average of variables                                   0.0002396291
 POWELL| Start optimization   8 of total 100               rhobeg =   0.00083759
 POWELL| Inital value of function                                1310.3464906144
 POWELL| Reached   6% of maximal function calls                  1310.3464906144
 POWELL| Reached   8% of maximal function calls                  1309.2054041697
 POWELL| Reached  10% of maximal function calls                  1298.5282553816
 POWELL| Reached  12% of maximal function calls                  1298.5282553816
 POWELL| Reached  14% of maximal function calls                  1298.5282553816
 POWELL| Reached  16% of maximal function calls                  1298.5282553816
 POWELL| Reached  18% of maximal function calls                  1298.5282553816
 POWELL| Reached  20% of maximal function calls                  1298.5282553816
 POWELL| Reached  22% of maximal function calls                  1287.7126952558
 POWELL| Reached  24% of maximal function calls                  1287.7126952558
 POWELL| Reached  26% of maximal function calls                  1287.7126952558
 POWELL| Reached  28% of maximal function calls                  1287.7126952558
 POWELL| Reached  30% of maximal function calls                  1287.7126952558
 POWELL| Reached  32% of maximal function calls                  1287.7126952558
 POWELL| Reached  34% of maximal function calls                  1287.7126952558
 POWELL| Reached  36% of maximal function calls                  1287.7126952558
 POWELL| Reached  38% of maximal function calls                  1287.7126952558
 POWELL| Reached  40% of maximal function calls                  1287.7126952558
 POWELL| Reached  42% of maximal function calls                  1287.7126952558
 POWELL| Reached  44% of maximal function calls                  1287.7126952558
 POWELL| Reached  46% of maximal function calls                  1287.7126952558
 POWELL| Reached  48% of maximal function calls                  1287.7126952558
 POWELL| Reached  50% of maximal function calls                  1287.7126952558
 POWELL| Reached  52% of maximal function calls                  1287.7126952558
 POWELL| Reached  54% of maximal function calls                  1287.7126952558
 POWELL| Reached  56% of maximal function calls                  1287.7126952558
 POWELL| Reached  57% of maximal function calls                  1285.7617540450
 POWELL| Reached  60% of maximal function calls                  1284.2250880774
 POWELL| Reached  62% of maximal function calls                  1282.9032581424
 POWELL| Reached  64% of maximal function calls                  1282.9032581424
 POWELL| Reached  66% of maximal function calls                  1282.7987674191
 POWELL| Reached  68% of maximal function calls                  1282.6227598953
 POWELL| Reached  70% of maximal function calls                  1282.6195118842
 POWELL| Reached  72% of maximal function calls                  1282.6195118842
 POWELL| Reached  74% of maximal function calls                  1282.5983777783
 POWELL| Reached  76% of maximal function calls                  1282.5983777783
 POWELL| Reached  78% of maximal function calls                  1282.5964068989
 POWELL| Reached  80% of maximal function calls                  1282.5940720673
 POWELL| Reached  82% of maximal function calls                  1282.5940720673
 POWELL| Reached  84% of maximal function calls                  1282.5940720673
 POWELL| Reached  86% of maximal function calls                  1282.5940720673
 POWELL| Reached  88% of maximal function calls                  1282.5940720673
 POWELL| Reached  90% of maximal function calls                  1282.5926959889
 POWELL| Reached  92% of maximal function calls                  1282.5104892230
 POWELL| Reached  94% of maximal function calls                  1282.5094708535
 POWELL| Reached  96% of maximal function calls                  1282.5081694128
 POWELL| Reached  98% of maximal function calls                  1282.5078682272
 POWELL| Reached 100% of maximal function calls                  1282.5078682272
 POWELL| Reached 100% of maximal function calls                  1282.5066626449
 POWELL| Exceeding maximum number of steps
 POWELL| Reached 100% of maximal function calls                  1282.5066626449
 POWELL| RMS average of variables                                   0.0002759305
 POWELL| Start optimization   9 of total 100               rhobeg =   0.00081665
 POWELL| Inital value of function                                1282.5066626449
 POWELL| Reached   6% of maximal function calls                  1282.5066626449
 POWELL| Reached   8% of maximal function calls                  1282.5066626449
 POWELL| Reached  10% of maximal function calls                  1272.7490942262
 POWELL| Reached  12% of maximal function calls                  1272.7490942262
 POWELL| Reached  14% of maximal function calls                  1272.7490942262
 POWELL| Reached  16% of maximal function calls                  1272.7490942262
 POWELL| Reached  18% of maximal function calls                  1272.7490942262
 POWELL| Reached  20% of maximal function calls                  1272.7490942262
 POWELL| Reached  22% of maximal function calls                  1270.6982733842
 POWELL| Reached  24% of maximal function calls                  1270.6982733842
 POWELL| Reached  26% of maximal function calls                  1270.6982733842
 POWELL| Reached  28% of maximal function calls                  1270.3558596042
 POWELL| Reached  30% of maximal function calls                  1270.3558596042
 POWELL| Reached  32% of maximal function calls                  1270.3558596042
 POWELL| Reached  34% of maximal function calls                  1270.3558596042
 POWELL| Reached  36% of maximal function calls                  1270.3558596042
 POWELL| Reached  38% of maximal function calls                  1270.3558596042
 POWELL| Reached  40% of maximal function calls                  1270.3558596042
 POWELL| Reached  42% of maximal function calls                  1270.3558596042
 POWELL| Reached  44% of maximal function calls                  1270.3558596042
 POWELL| Reached  46% of maximal function calls                  1270.3558596042
 POWELL| Reached  48% of maximal function calls                  1270.3558596042
 POWELL| Reached  50% of maximal function calls                  1270.3558596042
 POWELL| Reached  52% of maximal function calls                  1270.3558596042
 POWELL| Reached  54% of maximal function calls                  1270.3558596042
 POWELL| Reached  56% of maximal function calls                  1270.3558596042
 POWELL| Reached  57% of maximal function calls                  1269.3373327190
 POWELL| Reached  60% of maximal function calls                  1269.3373327190
 POWELL| Reached  62% of maximal function calls                  1269.3373327190
 POWELL| Reached  64% of maximal function calls                  1269.2461770022
 POWELL| Reached  66% of maximal function calls                  1269.1114033998
 POWELL| Reached  68% of maximal function calls                  1269.1114033998
 POWELL| Reached  70% of maximal function calls                  1269.0928681155
 POWELL| Reached  72% of maximal function calls                  1269.0726581554
 POWELL| Reached  74% of maximal function calls                  1269.0688931918
 POWELL| Reached  76% of maximal function calls                  1269.0688931918
 POWELL| Reached  78% of maximal function calls                  1269.0688931918
 POWELL| Reached  80% of maximal function calls                  1269.0688931918
 POWELL| Reached  82% of maximal function calls                  1269.0688931918
 POWELL| Reached  84% of maximal function calls                  1269.0687027806
 POWELL| Reached  86% of maximal function calls                  1269.0668043305
 POWELL| Reached  88% of maximal function calls                  1269.0668043305
 POWELL| Reached  90% of maximal function calls                  1269.0668043305
 POWELL| Reached  92% of maximal function calls                  1269.0668043305
 POWELL| Reached  94% of maximal function calls                  1269.0668043305
 POWELL| Reached  96% of maximal function calls                  1269.0668043305
 POWELL| Reached  98% of maximal function calls                  1269.0642592092
 POWELL| Reached 100% of maximal function calls                  1269.0642592092
 POWELL| Reached 100% of maximal function calls                  1269.0642592092
 POWELL| Exceeding maximum number of steps
 POWELL| Reached 100% of maximal function calls                  1269.0642592092
 POWELL| RMS average of variables                                   0.0002508413
 POWELL| Start optimization  10 of total 100               rhobeg =   0.00079624
 POWELL| Inital value of function                                1269.0642592092
 POWELL| Reached   6% of maximal function calls                  1269.0642592092
 POWELL| Reached   8% of maximal function calls                  1269.0642592092
 POWELL| Reached  10% of maximal function calls                  1260.6060590628
 POWELL| Reached  12% of maximal function calls                  1260.6060590628
 POWELL| Reached  14% of maximal function calls                  1260.6060590628
 POWELL| Reached  16% of maximal function calls                  1260.6060590628
 POWELL| Reached  18% of maximal function calls                  1260.6060590628
 POWELL| Reached  20% of maximal function calls                  1260.6060590628
 POWELL| Reached  22% of maximal function calls                  1257.5002487487
 POWELL| Reached  24% of maximal function calls                  1257.5002487487
 POWELL| Reached  26% of maximal function calls                  1257.5002487487
 POWELL| Reached  28% of maximal function calls                  1257.5002487487
 POWELL| Reached  30% of maximal function calls                  1257.5002487487
 POWELL| Reached  32% of maximal function calls                  1257.5002487487
 POWELL| Reached  34% of maximal function calls                  1257.5002487487
 POWELL| Reached  36% of maximal function calls                  1257.5002487487
 POWELL| Reached  38% of maximal function calls                  1257.5002487487
 POWELL| Reached  40% of maximal function calls                  1257.5002487487
 POWELL| Reached  42% of maximal function calls                  1257.5002487487
 POWELL| Reached  44% of maximal function calls                  1257.5002487487
 POWELL| Reached  46% of maximal function calls                  1257.5002487487
 POWELL| Reached  48% of maximal function calls                  1257.5002487487
 POWELL| Reached  50% of maximal function calls                  1257.5002487487
 POWELL| Reached  52% of maximal function calls                  1257.5002487487
 POWELL| Reached  54% of maximal function calls                  1257.5002487487
 POWELL| Reached  56% of maximal function calls                  1257.5002487487
 POWELL| Reached  57% of maximal function calls                  1256.6261043244
 POWELL| Reached  60% of maximal function calls                  1256.6261043244
 POWELL| Reached  62% of maximal function calls                  1256.6261043244
 POWELL| Reached  64% of maximal function calls                  1256.5430175760
 POWELL| Reached  66% of maximal function calls                  1256.4245585362
 POWELL| Reached  68% of maximal function calls                  1256.4245585362
 POWELL| Reached  70% of maximal function calls                  1256.4245585362
 POWELL| Reached  72% of maximal function calls                  1256.4245585362
 POWELL| Reached  74% of maximal function calls                  1256.4245585362
 POWELL| Reached  76% of maximal function calls                  1256.4245585362
 POWELL| Reached  78% of maximal function calls                  1256.4245585362
 POWELL| Reached  80% of maximal function calls                  1256.4203151314
 POWELL| Reached  82% of maximal function calls                  1256.4174684232
 POWELL| Reached  84% of maximal function calls                  1256.4173852460
 POWELL| Reached  86% of maximal function calls                  1256.4171575178
 POWELL| Reached  88% of maximal function calls                  1256.4171575178
 POWELL| Reached  90% of maximal function calls                  1256.4171575178
 POWELL| Reached  92% of maximal function calls                  1256.4171575178
 POWELL| Reached  94% of maximal function calls                  1256.4155151317
 POWELL| Reached  96% of maximal function calls                  1256.4117847297
 POWELL| Reached  98% of maximal function calls                  1256.4111905242
 POWELL| Reached 100% of maximal function calls                  1256.4064024412
 POWELL| Reached 100% of maximal function calls                  1256.4064024412
 POWELL| Exceeding maximum number of steps
 POWELL| Reached 100% of maximal function calls                  1256.4064024412
 POWELL| RMS average of variables                                   0.0002445001
 POWELL| Start optimization  11 of total 100               rhobeg =   0.00077633
 POWELL| Inital value of function                                1256.4064024412
 POWELL| Reached   6% of maximal function calls                  1256.4064024412
 POWELL| Reached   8% of maximal function calls                  1256.4064024412
 POWELL| Reached  10% of maximal function calls                  1248.6477647934
 POWELL| Reached  12% of maximal function calls                  1248.6477647934
 POWELL| Reached  14% of maximal function calls                  1248.6477647934
 POWELL| Reached  16% of maximal function calls                  1248.6477647934
 POWELL| Reached  18% of maximal function calls                  1248.6477647934
 POWELL| Reached  20% of maximal function calls                  1248.6477647934
 POWELL| Reached  22% of maximal function calls                  1248.6477647934
 POWELL| Reached  24% of maximal function calls                  1248.6477647934
 POWELL| Reached  26% of maximal function calls                  1248.6477647934
 POWELL| Reached  28% of maximal function calls                  1248.5857980775
 POWELL| Reached  30% of maximal function calls                  1248.5857980775
 POWELL| Reached  32% of maximal function calls                  1248.5857980775
 POWELL| Reached  34% of maximal function calls                  1248.5857980775
 POWELL| Reached  36% of maximal function calls                  1248.5857980775
 POWELL| Reached  38% of maximal function calls                  1248.5857980775
 POWELL| Reached  40% of maximal function calls                  1248.5857980775
 POWELL| Reached  42% of maximal function calls                  1248.5857980775
 POWELL| Reached  44% of maximal function calls                  1248.5857980775
 POWELL| Reached  46% of maximal function calls                  1248.5857980775
 POWELL| Reached  48% of maximal function calls                  1248.5857980775
 POWELL| Reached  50% of maximal function calls                  1248.5857980775
 POWELL| Reached  52% of maximal function calls                  1248.5857980775
 POWELL| Reached  54% of maximal function calls                  1248.5857980775
 POWELL| Reached  56% of maximal function calls                  1248.5857980775
 POWELL| Reached  57% of maximal function calls                  1248.0434361918
 POWELL| Reached  60% of maximal function calls                  1248.0434361918
 POWELL| Reached  62% of maximal function calls                  1248.0434361918
 POWELL| Reached  64% of maximal function calls                  1247.9723489036
 POWELL| Reached  66% of maximal function calls                  1247.8803290955
 POWELL| Reached  68% of maximal function calls                  1247.8803290955
 POWELL| Reached  70% of maximal function calls                  1247.8803290955
 POWELL| Reached  72% of maximal function calls                  1247.8803290955
 POWELL| Reached  74% of maximal function calls                  1247.8803290955
 POWELL| Reached  76% of maximal function calls                  1247.8803290955
 POWELL| Reached  78% of maximal function calls                  1247.7879102065
 POWELL| Reached  80% of maximal function calls                  1247.7879102065
 POWELL| Reached  82% of maximal function calls                  1247.7869079853
 POWELL| Reached  84% of maximal function calls                  1247.7869079853
 POWELL| Reached  86% of maximal function calls                  1247.7858940857
 POWELL| Reached  88% of maximal function calls                  1247.7858940857
 POWELL| Reached  90% of maximal function calls                  1247.7856799397
 POWELL| Reached  92% of maximal function calls                  1247.7856799397
 POWELL| Reached  94% of maximal function calls                  1247.7856799397
 POWELL| Reached  96% of maximal function calls                  1247.7839228853
 POWELL| Reached  98% of maximal function calls                  1247.7839228853
 POWELL| Reached 100% of maximal function calls                  1247.7839228853
 POWELL| Reached 100% of maximal function calls                  1247.7839228853
 POWELL| Exceeding maximum number of steps
 POWELL| Reached 100% of maximal function calls                  1247.7839228853
 POWELL| RMS average of variables                                   0.0002383606
 POWELL| Start optimization  12 of total 100               rhobeg =   0.00075692
 POWELL| Inital value of function                                1247.7839228853
 POWELL| Reached   6% of maximal function calls                  1247.7839228853
 POWELL| Reached   8% of maximal function calls                  1247.7839228853
 POWELL| Reached  10% of maximal function calls                  1241.2408730887
 POWELL| Reached  12% of maximal function calls                  1241.2408730887
 POWELL| Reached  14% of maximal function calls                  1241.2408730887
 POWELL| Reached  16% of maximal function calls                  1241.2408730887
 POWELL| Reached  18% of maximal function calls                  1241.2408730887
 POWELL| Reached  20% of maximal function calls                  1241.2408730887
 POWELL| Reached  22% of maximal function calls                  1241.2408730887
 POWELL| Reached  24% of maximal function calls                  1241.2408730887
 POWELL| Reached  26% of maximal function calls                  1241.2408730887
 POWELL| Reached  28% of maximal function calls                  1241.2408730887
 POWELL| Reached  30% of maximal function calls                  1241.2408730887
 POWELL| Reached  32% of maximal function calls                  1241.2408730887
 POWELL| Reached  34% of maximal function calls                  1241.2408730887
 POWELL| Reached  36% of maximal function calls                  1241.2408730887
 POWELL| Reached  38% of maximal function calls                  1241.2408730887
 POWELL| Reached  40% of maximal function calls                  1241.2408730887
 POWELL| Reached  42% of maximal function calls                  1241.2408730887
 POWELL| Reached  44% of maximal function calls                  1241.2408730887
 POWELL| Reached  46% of maximal function calls                  1241.2408730887
 POWELL| Reached  48% of maximal function calls                  1241.2408730887
 POWELL| Reached  50% of maximal function calls                  1241.2408730887
 POWELL| Reached  52% of maximal function calls                  1241.2408730887
 POWELL| Reached  54% of maximal function calls                  1241.2408730887
 POWELL| Reached  56% of maximal function calls                  1241.2408730887
 POWELL| Reached  57% of maximal function calls                  1240.6144772171
 POWELL| Reached  60% of maximal function calls                  1240.6144772171
 POWELL| Reached  62% of maximal function calls                  1240.6144772171
 POWELL| Reached  64% of maximal function calls                  1240.6144772171
 POWELL| Reached  66% of maximal function calls                  1240.6144772171
 POWELL| Reached  68% of maximal function calls                  1240.6144772171
 POWELL| Reached  70% of maximal function calls                  1240.6144772171
 POWELL| Reached  72% of maximal function calls                  1240.6144772171
 POWELL| Reached  74% of maximal function calls                  1240.6144772171
 POWELL| Reached  76% of maximal function calls                  1240.6071000324
 POWELL| Reached  78% of maximal function calls                  1240.6071000324
 POWELL| Reached  80% of maximal function calls                  1240.6071000324
 POWELL| Reached  82% of maximal function calls                  1240.6071000324
 POWELL| Reached  84% of maximal function calls                  1240.6071000324
 POWELL| Reached  86% of maximal function calls                  1240.6071000324
 POWELL| Reached  88% of maximal function calls                  1240.6071000324
 POWELL| Reached  90% of maximal function calls                  1240.6071000324
 POWELL| Reached  92% of maximal function calls                  1240.5835014430
 POWELL| Reached  94% of maximal function calls                  1240.5835014430
 POWELL| Reached  96% of maximal function calls                  1240.5835014430
 POWELL| Reached  98% of maximal function calls                  1240.4901239788
 POWELL| Reached 100% of maximal function calls                  1240.4816898835
 POWELL| Reached 100% of maximal function calls                  1240.4816898835
 POWELL| Exceeding maximum number of steps
 POWELL| Reached 100% of maximal function calls                  1240.4816898835
 POWELL| RMS average of variables                                   0.0002310411
 POWELL| Start optimization  13 of total 100               rhobeg =   0.00073800
 POWELL| Inital value of function                                1240.4816898835
 POWELL| Reached   6% of maximal function calls                  1240.4816898835
 POWELL| Reached   8% of maximal function calls                  1240.4816898835
 POWELL| Reached  10% of maximal function calls                  1234.8460240526
 POWELL| Reached  12% of maximal function calls                  1234.8460240526
 POWELL| Reached  14% of maximal function calls                  1234.8460240526
 POWELL| Reached  16% of maximal function calls                  1234.8460240526
 POWELL| Reached  18% of maximal function calls                  1234.8460240526
 POWELL| Reached  20% of maximal function calls                  1234.8460240526
 POWELL| Reached  22% of maximal function calls                  1234.8460240526
 POWELL| Reached  24% of maximal function calls                  1234.8460240526
 POWELL| Reached  26% of maximal function calls                  1234.8460240526
 POWELL| Reached  28% of maximal function calls                  1234.8460240526
 POWELL| Reached  30% of maximal function calls                  1234.8460240526
 POWELL| Reached  32% of maximal function calls                  1234.8460240526
 POWELL| Reached  34% of maximal function calls                  1234.8460240526
 POWELL| Reached  36% of maximal function calls                  1234.8460240526
 POWELL| Reached  38% of maximal function calls                  1234.8460240526
 POWELL| Reached  40% of maximal function calls                  1234.8460240526
 POWELL| Reached  42% of maximal function calls                  1234.8460240526
 POWELL| Reached  44% of maximal function calls                  1234.8460240526
 POWELL| Reached  46% of maximal function calls                  1234.8460240526
 POWELL| Reached  48% of maximal function calls                  1234.8460240526
 POWELL| Reached  50% of maximal function calls                  1234.8460240526
 POWELL| Reached  52% of maximal function calls                  1234.8460240526
 POWELL| Reached  54% of maximal function calls                  1234.8460240526
 POWELL| Reached  56% of maximal function calls                  1234.8460240526
 POWELL| Reached  57% of maximal function calls                  1234.3164975502
 POWELL| Reached  60% of maximal function calls                  1234.3164975502
 POWELL| Reached  62% of maximal function calls                  1234.3164975502
 POWELL| Reached  64% of maximal function calls                  1234.3164975502
 POWELL| Reached  66% of maximal function calls                  1234.3164975502
 POWELL| Reached  68% of maximal function calls                  1234.3164975502
 POWELL| Reached  70% of maximal function calls                  1234.3164975502
 POWELL| Reached  72% of maximal function calls                  1234.3164975502
 POWELL| Reached  74% of maximal function calls                  1234.3164975502
 POWELL| Reached  76% of maximal function calls                  1234.3097765925
 POWELL| Reached  78% of maximal function calls                  1234.3097765925
 POWELL| Reached  80% of maximal function calls                  1234.3097765925
 POWELL| Reached  82% of maximal function calls                  1234.2763882976
 POWELL| Reached  84% of maximal function calls                  1234.2350389849
 POWELL| Reached  86% of maximal function calls                  1234.2350389849
 POWELL| Reached  88% of maximal function calls                  1234.1950181655
 POWELL| Reached  90% of maximal function calls                  1234.1950181655
 POWELL| Reached  92% of maximal function calls                  1234.1947633248
 POWELL| Reached  94% of maximal function calls                  1234.1640176072
 POWELL| Reached  96% of maximal function calls                  1234.1640176072
 POWELL| Reached  98% of maximal function calls                  1234.1640176072
 POWELL| Reached 100% of maximal function calls                  1234.1590439927
 POWELL| Reached 100% of maximal function calls                  1234.1573750861
 POWELL| Exceeding maximum number of steps
 POWELL| Reached 100% of maximal function calls                  1234.1573750861
 POWELL| RMS average of variables                                   0.0002252072
 POWELL| Start optimization  14 of total 100               rhobeg =   0.00071955
 POWELL| Inital value of function                                1234.1573750861
 POWELL| Reached   6% of maximal function calls                  1234.1573750861
 POWELL| Reached   8% of maximal function calls                  1234.1573750861
 POWELL| Reached  10% of maximal function calls                  1229.3757988612
 POWELL| Reached  12% of maximal function calls                  1229.3757988612
 POWELL| Reached  14% of maximal function calls                  1229.3757988612
 POWELL| Reached  16% of maximal function calls                  1229.3757988612
 POWELL| Reached  18% of maximal function calls                  1229.3757988612
 POWELL| Reached  20% of maximal function calls                  1229.3757988612
 POWELL| Reached  22% of maximal function calls                  1229.3757988612
 POWELL| Reached  24% of maximal function calls                  1229.3757988612
 POWELL| Reached  26% of maximal function calls                  1229.3757988612
 POWELL| Reached  28% of maximal function calls                  1229.3757988612
 POWELL| Reached  30% of maximal function calls                  1229.3757988612
 POWELL| Reached  32% of maximal function calls                  1229.3757988612
 POWELL| Reached  34% of maximal function calls                  1229.3757988612
 POWELL| Reached  36% of maximal function calls                  1229.3757988612
 POWELL| Reached  38% of maximal function calls                  1229.3757988612
 POWELL| Reached  40% of maximal function calls                  1229.3757988612
 POWELL| Reached  42% of maximal function calls                  1229.3757988612
 POWELL| Reached  44% of maximal function calls                  1228.9387444859
 POWELL| Reached  46% of maximal function calls                  1228.9387444859
 POWELL| Reached  48% of maximal function calls                  1228.9387444859
 POWELL| Reached  50% of maximal function calls                  1228.9387444859
 POWELL| Reached  52% of maximal function calls                  1228.9387444859
 POWELL| Reached  54% of maximal function calls                  1228.9387444859
 POWELL| Reached  56% of maximal function calls                  1228.9387444859
 POWELL| Reached  57% of maximal function calls                  1228.6353776988
 POWELL| Reached  60% of maximal function calls                  1228.6353776988
 POWELL| Reached  62% of maximal function calls                  1228.6353776988
 POWELL| Reached  64% of maximal function calls                  1228.5847445415
 POWELL| Reached  66% of maximal function calls                  1228.5286678951
 POWELL| Reached  68% of maximal function calls                  1228.5286678951
 POWELL| Reached  70% of maximal function calls                  1228.5101150053
 POWELL| Reached  72% of maximal function calls                  1228.4948234420
 POWELL| Reached  74% of maximal function calls                  1228.4873952671
 POWELL| Reached  76% of maximal function calls                  1228.4873952671
 POWELL| Reached  78% of maximal function calls                  1228.4873952671
 POWELL| Reached  80% of maximal function calls                  1228.4814619535
 POWELL| Reached  82% of maximal function calls                  1228.4814619535
 POWELL| Reached  84% of maximal function calls                  1228.4814619535
 POWELL| Reached  86% of maximal function calls                  1228.4805882369
 POWELL| Reached  88% of maximal function calls                  1228.4805882369
 POWELL| Reached  90% of maximal function calls                  1228.4805882369
 POWELL| Reached  92% of maximal function calls                  1228.4805882369
 POWELL| Reached  94% of maximal function calls                  1228.4805882369
 POWELL| Reached  96% of maximal function calls                  1228.4805882369
 POWELL| Reached  98% of maximal function calls                  1228.4803439356
 POWELL| Reached 100% of maximal function calls                  1228.4803439356
 POWELL| Reached 100% of maximal function calls                  1228.4794590360
 POWELL| Exceeding maximum number of steps
 POWELL| Reached 100% of maximal function calls                  1228.4794590360
 POWELL| RMS average of variables                                   0.0002210411
 POWELL| Start optimization  15 of total 100               rhobeg =   0.00070156
 POWELL| Inital value of function                                1228.4794590360
 POWELL| Reached   6% of maximal function calls                  1228.4794590360
 POWELL| Reached   8% of maximal function calls                  1228.4794590360
 POWELL| Reached  10% of maximal function calls                  1223.8844657599
 POWELL| Reached  12% of maximal function calls                  1223.8844657599
 POWELL| Reached  14% of maximal function calls                  1223.8844657599
 POWELL| Reached  16% of maximal function calls                  1223.8844657599
 POWELL| Reached  18% of maximal function calls                  1223.8844657599
 POWELL| Reached  20% of maximal function calls                  1223.8844657599
 POWELL| Reached  22% of maximal function calls                  1219.8096944497
 POWELL| Reached  24% of maximal function calls                  1219.8096944497
 POWELL| Reached  26% of maximal function calls                  1219.8096944497
 POWELL| Reached  28% of maximal function calls                  1219.8096944497
 POWELL| Reached  30% of maximal function calls                  1219.8096944497
 POWELL| Reached  32% of maximal function calls                  1219.8096944497
 POWELL| Reached  34% of maximal function calls                  1219.8096944497
 POWELL| Reached  36% of maximal function calls                  1219.8096944497
 POWELL| Reached  38% of maximal function calls                  1219.8096944497
 POWELL| Reached  40% of maximal function calls                  1219.8096944497
 POWELL| Reached  42% of maximal function calls                  1219.8096944497
 POWELL| Reached  44% of maximal function calls                  1219.8096944497
 POWELL| Reached  46% of maximal function calls                  1219.8096944497
 POWELL| Reached  48% of maximal function calls                  1219.8096944497
 POWELL| Reached  50% of maximal function calls                  1219.8096944497
 POWELL| Reached  52% of maximal function calls                  1219.8096944497
 POWELL| Reached  54% of maximal function calls                  1219.8096944497
 POWELL| Reached  56% of maximal function calls                  1219.8096944497
 POWELL| Reached  57% of maximal function calls                  1219.1619353251
 POWELL| Reached  60% of maximal function calls                  1219.1619353251
 POWELL| Reached  62% of maximal function calls                  1219.1619353251
 POWELL| Reached  64% of maximal function calls                  1219.1168504427
 POWELL| Reached  66% of maximal function calls                  1219.0410913573
 POWELL| Reached  68% of maximal function calls                  1219.0410913573
 POWELL| Reached  70% of maximal function calls                  1219.0410913573
 POWELL| Reached  72% of maximal function calls                  1219.0410913573
 POWELL| Reached  74% of maximal function calls                  1219.0410913573
 POWELL| Reached  76% of maximal function calls                  1219.0410913573
 POWELL| Reached  78% of maximal function calls                  1219.0410913573
 POWELL| Reached  80% of maximal function calls                  1219.0394071838
 POWELL| Reached  82% of maximal function calls                  1219.0390607325
 POWELL| Reached  84% of maximal function calls                  1219.0377076274
 POWELL| Reached  86% of maximal function calls                  1219.0377076274
 POWELL| Reached  88% of maximal function calls                  1219.0376367554
 POWELL| Reached  90% of maximal function calls                  1219.0373939340
 POWELL| Reached  92% of maximal function calls                  1219.0373939340
 POWELL| Reached  94% of maximal function calls                  1219.0363619088
 POWELL| Reached  96% of maximal function calls                  1219.0363619088
 POWELL| Reached  98% of maximal function calls                  1219.0359288220
 POWELL| Reached 100% of maximal function calls                  1219.0331449797
 POWELL| Reached 100% of maximal function calls                  1219.0293794191
 POWELL| Exceeding maximum number of steps
 POWELL| Reached 100% of maximal function calls                  1219.0293794191
 POWELL| RMS average of variables                                   0.0002154167
 POWELL| Start optimization  16 of total 100               rhobeg =   0.00068402
 POWELL| Inital value of function                                1219.0293794191
 POWELL| Reached   6% of maximal function calls                  1219.0293794191
 POWELL| Reached   8% of maximal function calls                  1219.0293794191
 POWELL| Reached  10% of maximal function calls                  1214.9611103913
 POWELL| Reached  12% of maximal function calls                  1214.9611103913
 POWELL| Reached  14% of maximal function calls                  1214.9611103913
 POWELL| Reached  16% of maximal function calls                  1214.9611103913
 POWELL| Reached  18% of maximal function calls                  1214.9611103913
 POWELL| Reached  20% of maximal function calls                  1214.9611103913
 POWELL| Reached  22% of maximal function calls                  1214.8312791869
 POWELL| Reached  24% of maximal function calls                  1214.8312791869
 POWELL| Reached  26% of maximal function calls                  1214.8312791869
 POWELL| Reached  28% of maximal function calls                  1214.8312791869
 POWELL| Reached  30% of maximal function calls                  1214.8312791869
 POWELL| Reached  32% of maximal function calls                  1212.2592930142
 POWELL| Reached  34% of maximal function calls                  1212.2592930142
 POWELL| Reached  36% of maximal function calls                  1212.2592930142
 POWELL| Reached  38% of maximal function calls                  1212.2592930142
 POWELL| Reached  40% of maximal function calls                  1212.2592930142
 POWELL| Reached  42% of maximal function calls                  1212.2592930142
 POWELL| Reached  44% of maximal function calls                  1212.2592930142
 POWELL| Reached  46% of maximal function calls                  1212.2592930142
 POWELL| Reached  48% of maximal function calls                  1212.2592930142
 POWELL| Reached  50% of maximal function calls                  1212.2592930142
 POWELL| Reached  52% of maximal function calls                  1212.2592930142
 POWELL| Reached  54% of maximal function calls                  1212.2592930142
[...]
 POWELL| Start optimization  98 of total 100               rhobeg =   0.00008579
 POWELL| Inital value of function                                 839.8316777254
 POWELL| Reached   6% of maximal function calls                   839.8316777254
 POWELL| Reached   8% of maximal function calls                   839.8316777254
 POWELL| Reached  10% of maximal function calls                   838.9400462775
 POWELL| Reached  12% of maximal function calls                   838.9400462775
 POWELL| Reached  14% of maximal function calls                   838.9400462775
 POWELL| Reached  16% of maximal function calls                   838.9400462775
 POWELL| Reached  18% of maximal function calls                   838.9400462775
 POWELL| Reached  20% of maximal function calls                   838.9400462775
 POWELL| Reached  22% of maximal function calls                   838.7306499620
 POWELL| Reached  24% of maximal function calls                   838.7306499620
 POWELL| Reached  26% of maximal function calls                   838.7306499620
 POWELL| Reached  28% of maximal function calls                   838.7306499620
 POWELL| Reached  30% of maximal function calls                   838.7306499620
 POWELL| Reached  32% of maximal function calls                   838.7306499620
 POWELL| Reached  34% of maximal function calls                   838.7306499620
 POWELL| Reached  36% of maximal function calls                   838.7306499620
 POWELL| Reached  38% of maximal function calls                   838.7306499620
 POWELL| Reached  40% of maximal function calls                   838.7306499620
 POWELL| Reached  42% of maximal function calls                   838.7306499620
 POWELL| Reached  44% of maximal function calls                   838.7306499620
 POWELL| Reached  46% of maximal function calls                   838.7306499620
 POWELL| Reached  48% of maximal function calls                   838.7306499620
 POWELL| Reached  50% of maximal function calls                   838.7306499620
 POWELL| Reached  52% of maximal function calls                   838.7306499620
 POWELL| Reached  54% of maximal function calls                   838.7306499620
 POWELL| Reached  56% of maximal function calls                   838.7306499620
 POWELL| Reached  57% of maximal function calls                   838.6238312458
 POWELL| Reached  60% of maximal function calls                   838.6238312458
 POWELL| Reached  62% of maximal function calls                   838.6238312458
 POWELL| Reached  64% of maximal function calls                   838.6151208400
 POWELL| Reached  66% of maximal function calls                   838.6014709369
 POWELL| Reached  68% of maximal function calls                   838.6014709369
 POWELL| Reached  70% of maximal function calls                   838.6014709369
 POWELL| Reached  72% of maximal function calls                   838.6014709369
 POWELL| Reached  74% of maximal function calls                   838.6014709369
 POWELL| Reached  76% of maximal function calls                   838.5948070853
 POWELL| Reached  78% of maximal function calls                   838.5948070853
 POWELL| Reached  80% of maximal function calls                   838.5948070853
 POWELL| Reached  82% of maximal function calls                   838.5948070853
 POWELL| Reached  84% of maximal function calls                   838.5947453251
 POWELL| Reached  86% of maximal function calls                   838.5947453251
 POWELL| Reached  88% of maximal function calls                   838.5946777421
 POWELL| Reached  90% of maximal function calls                   838.5946777421
 POWELL| Reached  92% of maximal function calls                   838.5945347378
 POWELL| Reached  94% of maximal function calls                   838.5945347378
 POWELL| Reached  96% of maximal function calls                   838.5943602108
 POWELL| Reached  98% of maximal function calls                   838.5943602108
 POWELL| Reached 100% of maximal function calls                   838.5943577572
 POWELL| Reached 100% of maximal function calls                   838.5941484448
 POWELL| Exceeding maximum number of steps
 POWELL| Reached 100% of maximal function calls                   838.5941484448
 POWELL| RMS average of variables                                   0.0000263453
 POWELL| Start optimization  99 of total 100               rhobeg =   0.00008365
 POWELL| Inital value of function                                 838.5941484448
 POWELL| Reached   6% of maximal function calls                   838.5941484448
 POWELL| Reached   8% of maximal function calls                   838.5941484448
 POWELL| Reached  10% of maximal function calls                   837.7370603589
 POWELL| Reached  12% of maximal function calls                   837.7370603589
 POWELL| Reached  14% of maximal function calls                   837.7370603589
 POWELL| Reached  16% of maximal function calls                   837.7370603589
 POWELL| Reached  18% of maximal function calls                   837.7370603589
 POWELL| Reached  20% of maximal function calls                   837.7370603589
 POWELL| Reached  22% of maximal function calls                   837.5843636350
 POWELL| Reached  24% of maximal function calls                   837.5843636350
 POWELL| Reached  26% of maximal function calls                   837.5843636350
 POWELL| Reached  28% of maximal function calls                   837.5459361632
 POWELL| Reached  30% of maximal function calls                   837.5459361632
 POWELL| Reached  32% of maximal function calls                   837.5459361632
 POWELL| Reached  34% of maximal function calls                   837.5459361632
 POWELL| Reached  36% of maximal function calls                   837.5459361632
 POWELL| Reached  38% of maximal function calls                   837.5459361632
 POWELL| Reached  40% of maximal function calls                   837.5459361632
 POWELL| Reached  42% of maximal function calls                   837.5459361632
 POWELL| Reached  44% of maximal function calls                   837.5459361632
 POWELL| Reached  46% of maximal function calls                   837.5459361632
 POWELL| Reached  48% of maximal function calls                   837.5459361632
 POWELL| Reached  50% of maximal function calls                   837.5459361632
 POWELL| Reached  52% of maximal function calls                   837.5459361632
 POWELL| Reached  54% of maximal function calls                   837.5459361632
 POWELL| Reached  56% of maximal function calls                   837.5459361632
 POWELL| Reached  57% of maximal function calls                   837.4431776486
 POWELL| Reached  60% of maximal function calls                   837.4431776486
 POWELL| Reached  62% of maximal function calls                   837.4431776486
 POWELL| Reached  64% of maximal function calls                   837.4348006493
 POWELL| Reached  66% of maximal function calls                   837.4216641286
 POWELL| Reached  68% of maximal function calls                   837.4216641286
 POWELL| Reached  70% of maximal function calls                   837.4216641286
 POWELL| Reached  72% of maximal function calls                   837.4216641286
 POWELL| Reached  74% of maximal function calls                   837.4216641286
 POWELL| Reached  76% of maximal function calls                   837.4216641286
 POWELL| Reached  78% of maximal function calls                   837.4216641286
 POWELL| Reached  80% of maximal function calls                   837.4215605834
 POWELL| Reached  82% of maximal function calls                   837.4215605834
 POWELL| Reached  84% of maximal function calls                   837.4215605834
 POWELL| Reached  86% of maximal function calls                   837.4215072661
 POWELL| Reached  88% of maximal function calls                   837.4215072661
 POWELL| Reached  90% of maximal function calls                   837.4215072661
 POWELL| Reached  92% of maximal function calls                   837.4213258794
 POWELL| Reached  94% of maximal function calls                   837.4213258794
 POWELL| Reached  96% of maximal function calls                   837.4213037678
 POWELL| Reached  98% of maximal function calls                   837.4213037678
 POWELL| Reached 100% of maximal function calls                   837.4212576178
 POWELL| Reached 100% of maximal function calls                   837.4212576178
 POWELL| Exceeding maximum number of steps
 POWELL| Reached 100% of maximal function calls                   837.4212576178
 POWELL| RMS average of variables                                   0.0000256836
 POWELL| Start optimization 100 of total 100               rhobeg =   0.00008156
 POWELL| Inital value of function                                 837.4212576178
 POWELL| Reached   6% of maximal function calls                   837.4212576178
 POWELL| Reached   8% of maximal function calls                   837.4212576178
 POWELL| Reached  10% of maximal function calls                   836.5964550215
 POWELL| Reached  12% of maximal function calls                   836.5964550215
 POWELL| Reached  14% of maximal function calls                   836.5964550215
 POWELL| Reached  16% of maximal function calls                   836.5964550215
 POWELL| Reached  18% of maximal function calls                   836.5964550215
 POWELL| Reached  20% of maximal function calls                   836.5964550215
 POWELL| Reached  22% of maximal function calls                   836.4359265248
 POWELL| Reached  24% of maximal function calls                   836.4359265248
 POWELL| Reached  26% of maximal function calls                   836.4359265248
 POWELL| Reached  28% of maximal function calls                   836.4359265248
 POWELL| Reached  30% of maximal function calls                   836.4359265248
 POWELL| Reached  32% of maximal function calls                   836.4359265248
 POWELL| Reached  34% of maximal function calls                   836.4359265248
 POWELL| Reached  36% of maximal function calls                   836.4359265248
 POWELL| Reached  38% of maximal function calls                   836.4359265248
 POWELL| Reached  40% of maximal function calls                   836.4359265248
 POWELL| Reached  42% of maximal function calls                   836.4359265248
 POWELL| Reached  44% of maximal function calls                   836.4359265248
 POWELL| Reached  46% of maximal function calls                   836.4359265248
 POWELL| Reached  48% of maximal function calls                   836.4359265248
 POWELL| Reached  50% of maximal function calls                   836.4359265248
 POWELL| Reached  52% of maximal function calls                   836.4359265248
 POWELL| Reached  54% of maximal function calls                   836.4359265248
 POWELL| Reached  56% of maximal function calls                   836.4359265248
 POWELL| Reached  57% of maximal function calls                   836.3403611131
 POWELL| Reached  60% of maximal function calls                   836.3403611131
 POWELL| Reached  62% of maximal function calls                   836.3403611131
 POWELL| Reached  64% of maximal function calls                   836.3322527299
 POWELL| Reached  66% of maximal function calls                   836.3198120922
 POWELL| Reached  68% of maximal function calls                   836.3198120922
 POWELL| Reached  70% of maximal function calls                   836.3198120922
 POWELL| Reached  72% of maximal function calls                   836.3198120922
 POWELL| Reached  74% of maximal function calls                   836.3198120922
 POWELL| Reached  76% of maximal function calls                   836.3198120922
 POWELL| Reached  78% of maximal function calls                   836.3198120922
 POWELL| Reached  80% of maximal function calls                   836.3197528145
 POWELL| Reached  82% of maximal function calls                   836.3197528145
 POWELL| Reached  84% of maximal function calls                   836.3197528145
 POWELL| Reached  86% of maximal function calls                   836.3196983813
 POWELL| Reached  88% of maximal function calls                   836.3194683426
 POWELL| Reached  90% of maximal function calls                   836.3194683426
 POWELL| Reached  92% of maximal function calls                   836.3193998498
 POWELL| Reached  94% of maximal function calls                   836.3193998498
 POWELL| Reached  96% of maximal function calls                   836.3192709543
 POWELL| Reached  98% of maximal function calls                   836.3192709543
 POWELL| Reached 100% of maximal function calls                   836.3191992225
 POWELL| Reached 100% of maximal function calls                   836.3191992225
 POWELL| Exceeding maximum number of steps
 POWELL| Reached 100% of maximal function calls                   836.3191992225
 POWELL| RMS average of variables                                   0.0000250394
 POWELL| Number of function evaluations                                       50
 POWELL| Final value of function                                  836.3191992225

 POWELL| Final errors of target values

 Reference configuration          1               Method number                1
    L    N    Occupation      Eigenvalue [eV]           dE [eV]          dCharge 
    0    1          2.00      -263.8705295642 SC  -0.166158[14]    -0.000000[ X]
    0    2          2.00       -23.0235284750 VA   0.007683[ 7]     0.005232[ 0]
    0    3          0.00        -0.2328132529 U1  -0.030272[ 0]     0.014494[ 0]
    0    4          0.00         4.4572324286 U2  -0.110128[ 0]     0.010897[ 0]
    1    1          6.00      -195.0850294651 SC  -0.058076[ 2]     0.000000[ X]
    1    2          6.00        -9.2206102799 VA   0.023690[72]     0.014827[ 0]
    1    3          0.00         1.2736275969 U1  -0.011203[ 0]     0.008065[ 0]
    1    4          0.00         6.1413709613 U2  -0.096048[ 0]     0.009456[ 0]
    2    1         10.00       -81.3479451625 SC   0.009371[ 0]    -0.000005[ X]
    2    2          0.00         2.2846237657 U1   0.123348[ 4]    -0.018426[ 0]
    2    3          0.00         5.9267023512 U2   0.445906[ 0]    -0.052664[ 0]
    3    1          0.00         4.4550995644 U1   0.024179[ 0]    -0.000128[ X]
    s-states N=    1                   Wavefunction at r=0:         1.763177[ 0]
    s-states N=    2                   Wavefunction at r=0:        -2.553479[ 0]
    s-states N=    3                   Wavefunction at r=0:         0.712581[ 0]
    s-states N=    4                   Wavefunction at r=0:         0.911341[ 0]

 Number of target values reached:                                       4 of  21



                             NORMAL TERMINATION OF     
                                                       
                           ****  ******  ****   ****   
                          **  ** ****** **  ** ******  
                          ******   **   **  ** **  **  
                          **  **   **    ****  **  **  


 -------------------------------------------------------------------------------
 -                                                                             -
 -                                DBCSR STATISTICS                             -
 -                                                                             -
 -------------------------------------------------------------------------------
 COUNTER                                    TOTAL       BLAS       SMM       ACC
 flops inhomo. stacks                           0       0.0%      0.0%      0.0%
 flops total                         0.000000E+00       0.0%      0.0%      0.0%
 flops max/rank                      0.000000E+00       0.0%      0.0%      0.0%
 matmuls inhomo. stacks                         0       0.0%      0.0%      0.0%
 matmuls total                                  0       0.0%      0.0%      0.0%
 number of processed stacks                     0       0.0%      0.0%      0.0%
 average stack size                                     0.0       0.0       0.0
 marketing flops                     0.000000E+00
 -------------------------------------------------------------------------------

 MEMORY| Estimated peak process memory [MiB]                                  47

 -------------------------------------------------------------------------------
 -                                                                             -
 -                           R E F E R E N C E S                               -
 -                                                                             -
 -------------------------------------------------------------------------------
 
 CP2K version 7.0 (Development Version), the CP2K developers group (2018).
 CP2K is freely available from https://www.cp2k.org/ .

 Schuett, Ole; Messmer, Peter; Hutter, Juerg; VandeVondele, Joost. 
 Electronic Structure Calculations on Graphics Processing Units, John Wiley & Sons, Ltd, 173-190 (2016). 
 GPU-Accelerated Sparse Matrix-Matrix Multiplication for Linear Scaling Density Functional Theory.
 http://dx.doi.org/10.1002/9781118670712.ch8


 Borstnik, U; VandeVondele, J; Weber, V; Hutter, J. 
 PARALLEL COMPUTING, 40 (5-6), 47-58 (2014). 
 Sparse matrix multiplication: The distributed block-compressed sparse
 row library.
 http://dx.doi.org/10.1016/j.parco.2014.03.012


 Hutter, J; Iannuzzi, M; Schiffmann, F; VandeVondele, J. 
 WILEY INTERDISCIPLINARY REVIEWS-COMPUTATIONAL MOLECULAR SCIENCE, 4 (1), 15-25 (2014). 
 CP2K: atomistic simulations of condensed matter systems.
 http://dx.doi.org/10.1002/wcms.1159


 Frigo, M; Johnson, SG. 
 PROCEEDINGS OF THE IEEE, 93 (2), 216-231 (2005). 
 The design and implementation of FFTW3.
 http://dx.doi.org/10.1109/JPROC.2004.840301


 Perdew, JP; Burke, K; Ernzerhof, M. 
 PHYSICAL REVIEW LETTERS, 77 (18), 3865-3868 (1996). 
 Generalized gradient approximation made simple.
 http://dx.doi.org/10.1103/PhysRevLett.77.3865


 -------------------------------------------------------------------------------
 -                                                                             -
 -                                T I M I N G                                  -
 -                                                                             -
 -------------------------------------------------------------------------------
 SUBROUTINE                       CALLS  ASD         SELF TIME        TOTAL TIME
                                MAXIMUM       AVERAGE  MAXIMUM  AVERAGE  MAXIMUM
 CP2K                                 1  1.0    0.002    0.002 1853.259 1853.259
 atom_code                            1  2.0    0.000    0.000 1853.256 1853.256
 atom_pseudo_opt                      1  3.0   10.495   10.495 1853.256 1853.256
 calculate_atom                    5864  4.0    0.019    0.019 1837.354 1837.354
 calculate_atom_restricted         5864  5.0  641.249  641.249 1837.335 1837.335
 calculate_atom_vxc_lda          365710  6.0 1119.765 1119.765 1196.086 1196.086
 xc_functional_eval              365710  7.0    0.901    0.901   75.976   75.976
 pbe_lda_eval                    365710  8.0   75.074   75.074   75.074   75.074
 -------------------------------------------------------------------------------

 The number of warnings for this run is : 0
 
 -------------------------------------------------------------------------------
  **** **** ******  **  PROGRAM ENDED AT                 2018-06-24 15:12:45.132
 ***** ** ***  *** **   PROGRAM RAN ON                                    tcpc01
 **    ****   ******    PROGRAM RAN BY                                    hutter
 ***** **    ** ** **   PROGRAM PROCESS ID                                 31736
  **** **  *******  **  PROGRAM STOPPED IN /data/hutter/pseudo/UZH2018/PBE/Kr/q2
                                           6
