
  **** **** ******  **  PROGRAM STARTED AT               2018-06-24 21:31:49.666
 ***** ** ***  *** **   PROGRAM STARTED ON                                tcpc01
 **    ****   ******    PROGRAM STARTED BY                                hutter
 ***** **    ** ** **   PROGRAM PROCESS ID                                  3275
  **** **  *******  **  PROGRAM STARTED IN /data/hutter/pseudo/UZH2018/PBE/Zn/q2
                                           0

 CP2K| version string:                    CP2K version 7.0 (Development Version)
 CP2K| source code revision number:                                    svn:18485
 CP2K| cp2kflags: libint fftw3 libxc libderiv_max_am1=5 libint_max_am=6 spglib  
 CP2K| is freely available from                            https://www.cp2k.org/
 CP2K| Program compiled at                         Wed Jun 20 10:41:43 CEST 2018
 CP2K| Program compiled on                                                tcpc01
 CP2K| Program compiled for                                                local
 CP2K| Data directory path                        /data/hutter/CURRENT/cp2k/data
 CP2K| Input file name                                                    Zn.inp

 GLOBAL| Method name                                                        ATOM
 GLOBAL| Project name                                                    PROJECT
 GLOBAL| Preferred FFT library                                             FFTW3
 GLOBAL| Preferred diagonalization lib.                                       SL
 GLOBAL| Run type                                                   ENERGY_FORCE
 GLOBAL| All-to-all communication in single precision                          F
 GLOBAL| FFTs using library dependent lengths                                  F
 GLOBAL| Global print level                                               MEDIUM
 GLOBAL| Total number of message passing processes                             1
 GLOBAL| Number of threads for this process                                    1
 GLOBAL| This output is from process                                           0
 GLOBAL| CPU model name :  Intel(R) Xeon(R) CPU           X5570  @ 2.93GHz

 MEMORY| system memory details [Kb]
 MEMORY|                        rank 0           min           max       average
 MEMORY| MemTotal             37009584      37009584      37009584      37009584
 MEMORY| MemFree              32436892      32436892      32436892      32436892
 MEMORY| Buffers                300580        300580        300580        300580
 MEMORY| Cached                2033568       2033568       2033568       2033568
 MEMORY| Slab                   272032        272032        272032        272032
 MEMORY| SReclaimable           203740        203740        203740        203740
 MEMORY| MemLikelyFree        34974780      34974780      34974780      34974780


 *** Fundamental physical constants (SI units) ***

 *** Literature: B. J. Mohr and B. N. Taylor,
 ***             CODATA recommended values of the fundamental physical
 ***             constants: 2006, Web Version 5.1
 ***             http://physics.nist.gov/constants

 Speed of light in vacuum [m/s]                             2.99792458000000E+08
 Magnetic constant or permeability of vacuum [N/A**2]       1.25663706143592E-06
 Electric constant or permittivity of vacuum [F/m]          8.85418781762039E-12
 Planck constant (h) [J*s]                                  6.62606896000000E-34
 Planck constant (h-bar) [J*s]                              1.05457162825177E-34
 Elementary charge [C]                                      1.60217648700000E-19
 Electron mass [kg]                                         9.10938215000000E-31
 Electron g factor [ ]                                     -2.00231930436220E+00
 Proton mass [kg]                                           1.67262163700000E-27
 Fine-structure constant                                    7.29735253760000E-03
 Rydberg constant [1/m]                                     1.09737315685270E+07
 Avogadro constant [1/mol]                                  6.02214179000000E+23
 Boltzmann constant [J/K]                                   1.38065040000000E-23
 Atomic mass unit [kg]                                      1.66053878200000E-27
 Bohr radius [m]                                            5.29177208590000E-11

 *** Conversion factors ***

 [u] -> [a.u.]                                              1.82288848426455E+03
 [Angstrom] -> [Bohr] = [a.u.]                              1.88972613288564E+00
 [a.u.] = [Bohr] -> [Angstrom]                              5.29177208590000E-01
 [a.u.] -> [s]                                              2.41888432650478E-17
 [a.u.] -> [fs]                                             2.41888432650478E-02
 [a.u.] -> [J]                                              4.35974393937059E-18
 [a.u.] -> [N]                                              8.23872205491840E-08
 [a.u.] -> [K]                                              3.15774647902944E+05
 [a.u.] -> [kJ/mol]                                         2.62549961709828E+03
 [a.u.] -> [kcal/mol]                                       6.27509468713739E+02
 [a.u.] -> [Pa]                                             2.94210107994716E+13
 [a.u.] -> [bar]                                            2.94210107994716E+08
 [a.u.] -> [atm]                                            2.90362800883016E+08
 [a.u.] -> [eV]                                             2.72113838565563E+01
 [a.u.] -> [Hz]                                             6.57968392072181E+15
 [a.u.] -> [1/cm] (wave numbers)                            2.19474631370540E+05
 [a.u./Bohr**2] -> [1/cm]                                   5.14048714338585E+03
 
 DBCSR| Multiplication driver                                               BLAS
 DBCSR| Multrec recursion limit                                              512
 DBCSR| Multiplication stack size                                           1000
 DBCSR| Maximum elements for images                                    UNLIMITED
 DBCSR| Multiplicative factor virtual images                                   1
 DBCSR| Multiplication size stacks                                             3



                           ****  ******  ****   ****   
                          **  ** ****** **  ** ******  
                          ******   **   **  ** **  **  
                          **  **   **    ****  **  **  
                                                       
                             University of Zurich      
                                 2009 - 2015           
                                                       
                                 Version 0.0           
                                                                   


 Atomic Energy Calculation             Zinc [Zn]             Atomic number:   30


 *******************************************************************************
 ************************** Calculate Reference States *************************
 *******************************************************************************

 METHOD    | Restricted Kohn-Sham Calculation
 METHOD    | Relativistic Calculation using Douglas-Kroll 3rd order
 FUNCTIONAL| ROUTINE=NEW
 FUNCTIONAL| PBE:
 FUNCTIONAL| J.P.Perdew, K.Burke, M.Ernzerhof, Phys. Rev. Letter, vol. 77, n 18,
 FUNCTIONAL|  pp. 3865-3868, (1996){spin unpolarized}                           

 Electronic structure
    Total number of core electrons                                          0.00
    Total number of valence electrons                                      30.00
    Total number of electrons                                              30.00
    Multiplicity                                                   not specified
    S      2.00  2.00  2.00  2.00
    P      6.00  6.00
    D     10.00


 *******************************************************************************
                  Iteration          Convergence                     Energy [au]
 *******************************************************************************
                          1         30.9808                   -1687.066180279050
                          2         9.84338                   -1620.374249666663
                          3         16.5926                   -1750.793620756310
                          4         9.69631                   -1777.213479233613
                          5         4.25016                   -1791.177403468179
                          6         1.67690                   -1794.689836313343
                          7        0.533810                   -1795.636845872505
                          8        0.157829E-01               -1795.713429574199
                          9        0.111080E-01               -1795.713501598110
                         10        0.151474E-03               -1795.713545509436
                         11        0.251497E-04               -1795.713545523300
                         12        0.727904E-06               -1795.713545523643
                         13        0.963002E-07               -1795.713545523637

 Energy components [Hartree]           Total Energy ::        -1795.713545523637
                                        Band Energy ::        -1037.700908458795
                                     Kinetic Energy ::         1893.820550848941
                                   Potential Energy ::        -3689.534096372578
                                      Virial (-V/T) ::            1.948196250547
                                        Core Energy ::        -2503.433814704183
                                          XC Energy ::          -71.788794716168
                                     Coulomb Energy ::          779.509063896713
                                        Confinement ::            0.000000020079

 Orbital energies  State     L     Occupation   Energy[a.u.]          Energy[eV]

                       1     0          2.000    -349.712863        -9516.170958
                       2     0          2.000     -42.530048        -1157.301466
                       3     0          2.000      -4.744983         -129.117542
                       4     0          2.000      -0.219544           -5.974091
                       5     0          0.000       0.032652            0.888519
                       6     0          0.000       0.242964            6.611390

                       1     1          6.000     -36.864426        -1003.132058
                       2     1          6.000      -3.062295          -83.329272
                       3     1          0.000      -0.039573           -1.076838
                       4     1          0.000       0.094108            2.560810

                       1     2         10.000      -0.372571          -10.138166
                       2     2          0.000       0.078131            2.126047
                       3     2          0.000       0.236794            6.443504

                       1     3          0.000       0.157816            4.294395


 Total Electron Density at R=0:                                     41111.022058

 *******************************************************************************
 ********************* Optimize Pseudopotential Parameters *********************
 *******************************************************************************

 POWELL| Start optimization procedure

 POWELL| Total number of parameters in optimization                           13

 POWELL| Initial errors of target values

 Reference configuration          1               Method number                1
    L    N    Occupation      Eigenvalue [eV]           dE [eV]          dCharge 
    0    1          2.00      -129.1379826963 SC  -0.020440[ 8]     0.000002[ X]
    0    2          2.00        -5.9703995649 VA   0.003691[80]     0.000242[ X]
    0    3          0.00         0.8875983382 U1  -0.000921[ X]     0.000193[ X]
    0    4          0.00         6.6073232779 U2  -0.004066[ X]     0.000521[ 0]
    1    1          6.00       -83.3237724433 SC   0.005499[ 0]     0.000001[ X]
    1    2          0.00        -1.0496889852 U1   0.027149[ 8]    -0.004177[ 0]
    1    3          0.00         2.5825388795 U2   0.021729[ X]    -0.000764[ 0]
    2    1         10.00       -10.1371690969 VA   0.000997[ 3]     0.000039[ X]
    2    2          0.00         2.1270819964 U1   0.001035[ X]    -0.000144[ X]
    2    3          0.00         6.4517979213 U2   0.008294[ X]    -0.001547[ 0]
    3    1          0.00         4.2942524427 U1  -0.000142[ X]    -0.000005[ X]

 Number of target values reached:                                      13 of  19

 POWELL| Start optimization   1 of total 100               rhobeg =   0.00080000
 POWELL| Inital value of function                                  16.5850162714
 POWELL| Reached   6% of maximal function calls                    16.5850162714
 POWELL| Reached   8% of maximal function calls                    16.5850162714
 POWELL| Reached  10% of maximal function calls                    16.5850162714
 POWELL| Reached  12% of maximal function calls                    16.5850162714
 POWELL| Reached  14% of maximal function calls                    16.5850162714
 POWELL| Reached  16% of maximal function calls                    16.5850162714
 POWELL| Reached  18% of maximal function calls                    16.5850162714
 POWELL| Reached  20% of maximal function calls                    16.5850162714
 POWELL| Reached  22% of maximal function calls                    16.5850162714
 POWELL| Reached  24% of maximal function calls                    16.5850162714
 POWELL| Reached  26% of maximal function calls                    16.5850162714
 POWELL| Reached  28% of maximal function calls                    16.5850162714
 POWELL| Reached  30% of maximal function calls                    16.5850162714
 POWELL| Reached  32% of maximal function calls                    16.5850162714
 POWELL| Reached  34% of maximal function calls                    16.5850162714
 POWELL| Reached  36% of maximal function calls                    16.5850162714
 POWELL| Reached  38% of maximal function calls                    16.5850162714
 POWELL| Reached  40% of maximal function calls                    16.5850162714
 POWELL| Reached  42% of maximal function calls                    16.5850162714
 POWELL| Reached  44% of maximal function calls                    16.5850162714
 POWELL| Reached  46% of maximal function calls                    16.5850162714
 POWELL| Reached  48% of maximal function calls                    16.5850162714
 POWELL| Reached  50% of maximal function calls                    16.5850162714
 POWELL| Reached  52% of maximal function calls                    16.5850162714
 POWELL| Reached  54% of maximal function calls                    16.5850162714
 POWELL| Reached  56% of maximal function calls                    16.5850162714
 POWELL| Reached  57% of maximal function calls                    16.5850162714
 POWELL| Reached  60% of maximal function calls                    16.5850162714
 POWELL| Reached  62% of maximal function calls                    16.5850162714
 POWELL| Reached  64% of maximal function calls                    16.5850162714
 POWELL| Reached  66% of maximal function calls                    16.5850162714
 POWELL| Reached  68% of maximal function calls                    16.5850162714
 POWELL| Reached  70% of maximal function calls                    16.5850162714
 POWELL| Reached  72% of maximal function calls                    16.5850162714
 POWELL| Reached  74% of maximal function calls                    16.5850162714
 POWELL| Reached  76% of maximal function calls                    16.5850162714
 POWELL| Reached  78% of maximal function calls                    16.5850162714
 POWELL| Reached  80% of maximal function calls                    16.5850162714
 POWELL| Reached  82% of maximal function calls                    16.5850162714
 POWELL| Reached  84% of maximal function calls                    16.5850162714
 POWELL| Reached  86% of maximal function calls                    16.5850162714
 POWELL| Reached  88% of maximal function calls                    16.5850162714
 POWELL| Reached  90% of maximal function calls                    16.5850162714
 POWELL| Reached  92% of maximal function calls                    16.5850162714
 POWELL| Reached  94% of maximal function calls                    16.5850162714
 POWELL| Reached  96% of maximal function calls                    16.5850162714
 POWELL| Reached  98% of maximal function calls                    16.5850162714
 POWELL| Reached 100% of maximal function calls                    16.5850162714
 POWELL| Reached 100% of maximal function calls                    16.5850162714
 POWELL| Exceeding maximum number of steps
 POWELL| Reached 100% of maximal function calls                    16.5850162714
 POWELL| RMS average of variables                                   0.0000000000
 POWELL| Number of function evaluations                                       50
 POWELL| Final value of function                                   16.5850162714

 POWELL| Final errors of target values

 Reference configuration          1               Method number                1
    L    N    Occupation      Eigenvalue [eV]           dE [eV]          dCharge 
    0    1          2.00      -129.1379830087 SC  -0.020441[ 8]     0.000002[ X]
    0    2          2.00        -5.9703993061 VA   0.003691[80]     0.000242[ X]
    0    3          0.00         0.8875986565 U1  -0.000920[ X]     0.000193[ X]
    0    4          0.00         6.6073235427 U2  -0.004066[ X]     0.000521[ 0]
    1    1          6.00       -83.3237727366 SC   0.005499[ 0]     0.000001[ X]
    1    2          0.00        -1.0496888126 U1   0.027149[ 8]    -0.004177[ 0]
    1    3          0.00         2.5825393425 U2   0.021729[ X]    -0.000764[ 0]
    2    1         10.00       -10.1371679740 VA   0.000998[ 3]     0.000039[ X]
    2    2          0.00         2.1270822994 U1   0.001035[ X]    -0.000144[ X]
    2    3          0.00         6.4517982431 U2   0.008295[ X]    -0.001547[ 0]
    3    1          0.00         4.2942528342 U1  -0.000142[ X]    -0.000005[ X]
    s-states N=    1                   Wavefunction at r=0:         0.088007[ 0]
    s-states N=    2                   Wavefunction at r=0:        -0.353943[ 0]
    s-states N=    3                   Wavefunction at r=0:         0.169040[ 0]
    s-states N=    4                   Wavefunction at r=0:        -0.262214[ 0]

 Number of target values reached:                                      13 of  19



                             NORMAL TERMINATION OF     
                                                       
                           ****  ******  ****   ****   
                          **  ** ****** **  ** ******  
                          ******   **   **  ** **  **  
                          **  **   **    ****  **  **  


 -------------------------------------------------------------------------------
 -                                                                             -
 -                                DBCSR STATISTICS                             -
 -                                                                             -
 -------------------------------------------------------------------------------
 COUNTER                                    TOTAL       BLAS       SMM       ACC
 flops inhomo. stacks                           0       0.0%      0.0%      0.0%
 flops total                         0.000000E+00       0.0%      0.0%      0.0%
 flops max/rank                      0.000000E+00       0.0%      0.0%      0.0%
 matmuls inhomo. stacks                         0       0.0%      0.0%      0.0%
 matmuls total                                  0       0.0%      0.0%      0.0%
 number of processed stacks                     0       0.0%      0.0%      0.0%
 average stack size                                     0.0       0.0       0.0
 marketing flops                     0.000000E+00
 -------------------------------------------------------------------------------

 MEMORY| Estimated peak process memory [MiB]                                  47

 -------------------------------------------------------------------------------
 -                                                                             -
 -                           R E F E R E N C E S                               -
 -                                                                             -
 -------------------------------------------------------------------------------
 
 CP2K version 7.0 (Development Version), the CP2K developers group (2018).
 CP2K is freely available from https://www.cp2k.org/ .

 Schuett, Ole; Messmer, Peter; Hutter, Juerg; VandeVondele, Joost. 
 Electronic Structure Calculations on Graphics Processing Units, John Wiley & Sons, Ltd, 173-190 (2016). 
 GPU-Accelerated Sparse Matrix-Matrix Multiplication for Linear Scaling Density Functional Theory.
 http://dx.doi.org/10.1002/9781118670712.ch8


 Borstnik, U; VandeVondele, J; Weber, V; Hutter, J. 
 PARALLEL COMPUTING, 40 (5-6), 47-58 (2014). 
 Sparse matrix multiplication: The distributed block-compressed sparse
 row library.
 http://dx.doi.org/10.1016/j.parco.2014.03.012


 Hutter, J; Iannuzzi, M; Schiffmann, F; VandeVondele, J. 
 WILEY INTERDISCIPLINARY REVIEWS-COMPUTATIONAL MOLECULAR SCIENCE, 4 (1), 15-25 (2014). 
 CP2K: atomistic simulations of condensed matter systems.
 http://dx.doi.org/10.1002/wcms.1159


 Frigo, M; Johnson, SG. 
 PROCEEDINGS OF THE IEEE, 93 (2), 216-231 (2005). 
 The design and implementation of FFTW3.
 http://dx.doi.org/10.1109/JPROC.2004.840301


 Perdew, JP; Burke, K; Ernzerhof, M. 
 PHYSICAL REVIEW LETTERS, 77 (18), 3865-3868 (1996). 
 Generalized gradient approximation made simple.
 http://dx.doi.org/10.1103/PhysRevLett.77.3865


 -------------------------------------------------------------------------------
 -                                                                             -
 -                                T I M I N G                                  -
 -                                                                             -
 -------------------------------------------------------------------------------
 SUBROUTINE                       CALLS  ASD         SELF TIME        TOTAL TIME
                                MAXIMUM       AVERAGE  MAXIMUM  AVERAGE  MAXIMUM
 CP2K                                 1  1.0    0.003    0.003   16.797   16.797
 atom_code                            1  2.0    0.000    0.000   16.794   16.794
 atom_pseudo_opt                      1  3.0    0.084    0.084   16.794   16.794
 calculate_atom                      62  4.0    0.000    0.000   16.612   16.612
 calculate_atom_restricted           62  5.0    5.780    5.780   16.612   16.612
 calculate_atom_vxc_lda            3556  6.0   10.143   10.143   10.832   10.832
 xc_functional_eval                3556  7.0    0.008    0.008    0.686    0.686
 pbe_lda_eval                      3556  8.0    0.678    0.678    0.678    0.678
 -------------------------------------------------------------------------------

 The number of warnings for this run is : 0
 
 -------------------------------------------------------------------------------
  **** **** ******  **  PROGRAM ENDED AT                 2018-06-24 21:32:06.507
 ***** ** ***  *** **   PROGRAM RAN ON                                    tcpc01
 **    ****   ******    PROGRAM RAN BY                                    hutter
 ***** **    ** ** **   PROGRAM PROCESS ID                                  3275
  **** **  *******  **  PROGRAM STOPPED IN /data/hutter/pseudo/UZH2018/PBE/Zn/q2
                                           0

  **** **** ******  **  PROGRAM STARTED AT               2018-06-24 21:33:26.565
 ***** ** ***  *** **   PROGRAM STARTED ON                                tcpc01
 **    ****   ******    PROGRAM STARTED BY                                hutter
 ***** **    ** ** **   PROGRAM PROCESS ID                                  3339
  **** **  *******  **  PROGRAM STARTED IN /data/hutter/pseudo/UZH2018/PBE/Zn/q2
                                           0

 CP2K| version string:                    CP2K version 7.0 (Development Version)
 CP2K| source code revision number:                                    svn:18485
 CP2K| cp2kflags: libint fftw3 libxc libderiv_max_am1=5 libint_max_am=6 spglib  
 CP2K| is freely available from                            https://www.cp2k.org/
 CP2K| Program compiled at                         Wed Jun 20 10:41:43 CEST 2018
 CP2K| Program compiled on                                                tcpc01
 CP2K| Program compiled for                                                local
 CP2K| Data directory path                        /data/hutter/CURRENT/cp2k/data
 CP2K| Input file name                                                    Zn.inp

 GLOBAL| Method name                                                        ATOM
 GLOBAL| Project name                                                    PROJECT
 GLOBAL| Preferred FFT library                                             FFTW3
 GLOBAL| Preferred diagonalization lib.                                       SL
 GLOBAL| Run type                                                   ENERGY_FORCE
 GLOBAL| All-to-all communication in single precision                          F
 GLOBAL| FFTs using library dependent lengths                                  F
 GLOBAL| Global print level                                               MEDIUM
 GLOBAL| Total number of message passing processes                             1
 GLOBAL| Number of threads for this process                                    1
 GLOBAL| This output is from process                                           0
 GLOBAL| CPU model name :  Intel(R) Xeon(R) CPU           X5570  @ 2.93GHz

 MEMORY| system memory details [Kb]
 MEMORY|                        rank 0           min           max       average
 MEMORY| MemTotal             37009584      37009584      37009584      37009584
 MEMORY| MemFree              32407368      32407368      32407368      32407368
 MEMORY| Buffers                300608        300608        300608        300608
 MEMORY| Cached                2033184       2033184       2033184       2033184
 MEMORY| Slab                   272044        272044        272044        272044
 MEMORY| SReclaimable           203732        203732        203732        203732
 MEMORY| MemLikelyFree        34944892      34944892      34944892      34944892


 *** Fundamental physical constants (SI units) ***

 *** Literature: B. J. Mohr and B. N. Taylor,
 ***             CODATA recommended values of the fundamental physical
 ***             constants: 2006, Web Version 5.1
 ***             http://physics.nist.gov/constants

 Speed of light in vacuum [m/s]                             2.99792458000000E+08
 Magnetic constant or permeability of vacuum [N/A**2]       1.25663706143592E-06
 Electric constant or permittivity of vacuum [F/m]          8.85418781762039E-12
 Planck constant (h) [J*s]                                  6.62606896000000E-34
 Planck constant (h-bar) [J*s]                              1.05457162825177E-34
 Elementary charge [C]                                      1.60217648700000E-19
 Electron mass [kg]                                         9.10938215000000E-31
 Electron g factor [ ]                                     -2.00231930436220E+00
 Proton mass [kg]                                           1.67262163700000E-27
 Fine-structure constant                                    7.29735253760000E-03
 Rydberg constant [1/m]                                     1.09737315685270E+07
 Avogadro constant [1/mol]                                  6.02214179000000E+23
 Boltzmann constant [J/K]                                   1.38065040000000E-23
 Atomic mass unit [kg]                                      1.66053878200000E-27
 Bohr radius [m]                                            5.29177208590000E-11

 *** Conversion factors ***

 [u] -> [a.u.]                                              1.82288848426455E+03
 [Angstrom] -> [Bohr] = [a.u.]                              1.88972613288564E+00
 [a.u.] = [Bohr] -> [Angstrom]                              5.29177208590000E-01
 [a.u.] -> [s]                                              2.41888432650478E-17
 [a.u.] -> [fs]                                             2.41888432650478E-02
 [a.u.] -> [J]                                              4.35974393937059E-18
 [a.u.] -> [N]                                              8.23872205491840E-08
 [a.u.] -> [K]                                              3.15774647902944E+05
 [a.u.] -> [kJ/mol]                                         2.62549961709828E+03
 [a.u.] -> [kcal/mol]                                       6.27509468713739E+02
 [a.u.] -> [Pa]                                             2.94210107994716E+13
 [a.u.] -> [bar]                                            2.94210107994716E+08
 [a.u.] -> [atm]                                            2.90362800883016E+08
 [a.u.] -> [eV]                                             2.72113838565563E+01
 [a.u.] -> [Hz]                                             6.57968392072181E+15
 [a.u.] -> [1/cm] (wave numbers)                            2.19474631370540E+05
 [a.u./Bohr**2] -> [1/cm]                                   5.14048714338585E+03
 
 DBCSR| Multiplication driver                                               BLAS
 DBCSR| Multrec recursion limit                                              512
 DBCSR| Multiplication stack size                                           1000
 DBCSR| Maximum elements for images                                    UNLIMITED
 DBCSR| Multiplicative factor virtual images                                   1
 DBCSR| Multiplication size stacks                                             3



                           ****  ******  ****   ****   
                          **  ** ****** **  ** ******  
                          ******   **   **  ** **  **  
                          **  **   **    ****  **  **  
                                                       
                             University of Zurich      
                                 2009 - 2015           
                                                       
                                 Version 0.0           
                                                                   


 Atomic Energy Calculation             Zinc [Zn]             Atomic number:   30


 *******************************************************************************
 ************************** Calculate Reference States *************************
 *******************************************************************************

 METHOD    | Restricted Kohn-Sham Calculation
 METHOD    | Relativistic Calculation using Douglas-Kroll 3rd order
 FUNCTIONAL| ROUTINE=NEW
 FUNCTIONAL| PBE:
 FUNCTIONAL| J.P.Perdew, K.Burke, M.Ernzerhof, Phys. Rev. Letter, vol. 77, n 18,
 FUNCTIONAL|  pp. 3865-3868, (1996){spin unpolarized}                           

 Electronic structure
    Total number of core electrons                                          0.00
    Total number of valence electrons                                      30.00
    Total number of electrons                                              30.00
    Multiplicity                                                   not specified
    S      2.00  2.00  2.00  2.00
    P      6.00  6.00
    D     10.00


 *******************************************************************************
                  Iteration          Convergence                     Energy [au]
 *******************************************************************************
                          1         30.9808                   -1687.066180279050
                          2         9.84338                   -1620.374249666663
                          3         16.5926                   -1750.793620756310
                          4         9.69631                   -1777.213479233613
                          5         4.25016                   -1791.177403468179
                          6         1.67690                   -1794.689836313343
                          7        0.533810                   -1795.636845872505
                          8        0.157829E-01               -1795.713429574199
                          9        0.111080E-01               -1795.713501598110
                         10        0.151474E-03               -1795.713545509436
                         11        0.251497E-04               -1795.713545523300
                         12        0.727904E-06               -1795.713545523643
                         13        0.963002E-07               -1795.713545523637

 Energy components [Hartree]           Total Energy ::        -1795.713545523637
                                        Band Energy ::        -1037.700908458795
                                     Kinetic Energy ::         1893.820550848941
                                   Potential Energy ::        -3689.534096372578
                                      Virial (-V/T) ::            1.948196250547
                                        Core Energy ::        -2503.433814704183
                                          XC Energy ::          -71.788794716168
                                     Coulomb Energy ::          779.509063896713
                                        Confinement ::            0.000000020079

 Orbital energies  State     L     Occupation   Energy[a.u.]          Energy[eV]

                       1     0          2.000    -349.712863        -9516.170958
                       2     0          2.000     -42.530048        -1157.301466
                       3     0          2.000      -4.744983         -129.117542
                       4     0          2.000      -0.219544           -5.974091
                       5     0          0.000       0.032652            0.888519
                       6     0          0.000       0.242964            6.611390

                       1     1          6.000     -36.864426        -1003.132058
                       2     1          6.000      -3.062295          -83.329272
                       3     1          0.000      -0.039573           -1.076838
                       4     1          0.000       0.094108            2.560810

                       1     2         10.000      -0.372571          -10.138166
                       2     2          0.000       0.078131            2.126047
                       3     2          0.000       0.236794            6.443504

                       1     3          0.000       0.157816            4.294395


 Total Electron Density at R=0:                                     41111.022058

 *******************************************************************************
 ********************* Optimize Pseudopotential Parameters *********************
 *******************************************************************************

 POWELL| Start optimization procedure

 POWELL| Total number of parameters in optimization                           13

 POWELL| Initial errors of target values

 Reference configuration          1               Method number                1
    L    N    Occupation      Eigenvalue [eV]           dE [eV]          dCharge 
    0    1          2.00      -129.1379826963 SC  -0.020440[ 8]     0.000002[ X]
    0    2          2.00        -5.9703995649 VA   0.003691[80]     0.000242[ X]
    0    3          0.00         0.8875983382 U1  -0.000921[ X]     0.000193[ X]
    0    4          0.00         6.6073232779 U2  -0.004066[ X]     0.000521[ 0]
    1    1          6.00       -83.3237724433 SC   0.005499[ 0]     0.000001[ X]
    1    2          0.00        -1.0496889852 U1   0.027149[ 8]    -0.004177[ 0]
    1    3          0.00         2.5825388795 U2   0.021729[ X]    -0.000764[ 0]
    2    1         10.00       -10.1371690969 VA   0.000997[ 3]     0.000039[ X]
    2    2          0.00         2.1270819964 U1   0.001035[ X]    -0.000144[ X]
    2    3          0.00         6.4517979213 U2   0.008294[ X]    -0.001547[ 0]
    3    1          0.00         4.2942524427 U1  -0.000142[ X]    -0.000005[ X]

 Number of target values reached:                                      13 of  19

 POWELL| Start optimization   1 of total 100               rhobeg =   0.00020000
 POWELL| Inital value of function                                  16.5850162714
 POWELL| Reached   6% of maximal function calls                    16.5850162714
 POWELL| Reached   8% of maximal function calls                    16.5850162714
 POWELL| Reached  10% of maximal function calls                    16.5850162714
 POWELL| Reached  12% of maximal function calls                    16.5850162714
 POWELL| Reached  14% of maximal function calls                    16.5850162714
 POWELL| Reached  16% of maximal function calls                    16.5850162714
 POWELL| Reached  18% of maximal function calls                    16.5850162714
 POWELL| Reached  20% of maximal function calls                    16.5850162714
 POWELL| Reached  22% of maximal function calls                    16.4960912441
 POWELL| Reached  24% of maximal function calls                    16.4960912441
 POWELL| Reached  26% of maximal function calls                    16.4960912441
 POWELL| Reached  28% of maximal function calls                    16.4960912441
 POWELL| Reached  30% of maximal function calls                    16.4960912441
 POWELL| Reached  32% of maximal function calls                    16.4960912441
 POWELL| Reached  34% of maximal function calls                    16.4960912441
 POWELL| Reached  36% of maximal function calls                    16.4960912441
 POWELL| Reached  38% of maximal function calls                    16.4960912441
 POWELL| Reached  40% of maximal function calls                    16.4960912441
 POWELL| Reached  42% of maximal function calls                    16.4960912441
 POWELL| Reached  44% of maximal function calls                    16.4960912441
 POWELL| Reached  46% of maximal function calls                    16.4960912441
 POWELL| Reached  48% of maximal function calls                    16.4960912441
 POWELL| Reached  50% of maximal function calls                    16.4960912441
 POWELL| Reached  52% of maximal function calls                    16.4960912441
 POWELL| Reached  54% of maximal function calls                    16.4960912441
 POWELL| Reached  56% of maximal function calls                    16.4960912441
 POWELL| Reached  57% of maximal function calls                    16.4946428967
 POWELL| Reached  60% of maximal function calls                    16.4846287390
 POWELL| Reached  62% of maximal function calls                    16.4846287390
 POWELL| Reached  64% of maximal function calls                    16.4846287390
 POWELL| Reached  66% of maximal function calls                    16.4846287390
 POWELL| Reached  68% of maximal function calls                    16.4846287390
 POWELL| Reached  70% of maximal function calls                    16.4845765321
 POWELL| Reached  72% of maximal function calls                    16.4845160426
 POWELL| Reached  74% of maximal function calls                    16.4845160426
 POWELL| Reached  76% of maximal function calls                    16.4845047268
 POWELL| Reached  78% of maximal function calls                    16.4843700666
 POWELL| Reached  80% of maximal function calls                    16.4840749346
 POWELL| Reached  82% of maximal function calls                    16.4840749346
 POWELL| Reached  84% of maximal function calls                    16.4840731675
 POWELL| Reached  86% of maximal function calls                    16.4840731675
 POWELL| Reached  88% of maximal function calls                    16.4840731675
 POWELL| Reached  90% of maximal function calls                    16.4840731675
 POWELL| Reached  92% of maximal function calls                    16.4840710099
 POWELL| Reached  94% of maximal function calls                    16.4840710099
 POWELL| Reached  96% of maximal function calls                    16.4840705661
 POWELL| Reached  98% of maximal function calls                    16.4840704283
 POWELL| Reached 100% of maximal function calls                    16.4840704283
 POWELL| Reached 100% of maximal function calls                    16.4840704283
 POWELL| Exceeding maximum number of steps
 POWELL| Reached 100% of maximal function calls                    16.4840704283
 POWELL| RMS average of variables                                   0.0000613075
 POWELL| Start optimization   2 of total 100               rhobeg =   0.00019600
 POWELL| Inital value of function                                  16.4840704283
 POWELL| Reached   6% of maximal function calls                    16.4840704283
 POWELL| Reached   8% of maximal function calls                    16.4840704283
 POWELL| Reached  10% of maximal function calls                    16.4840704283
 POWELL| Reached  12% of maximal function calls                    16.4840704283
 POWELL| Reached  14% of maximal function calls                    16.4840704283
 POWELL| Reached  16% of maximal function calls                    16.4840704283
 POWELL| Reached  18% of maximal function calls                    16.4840704283
 POWELL| Reached  20% of maximal function calls                    16.4840704283
 POWELL| Reached  22% of maximal function calls                    16.4695557392
 POWELL| Reached  24% of maximal function calls                    16.4695557392
 POWELL| Reached  26% of maximal function calls                    16.4695557392
 POWELL| Reached  28% of maximal function calls                    16.4695557392
 POWELL| Reached  30% of maximal function calls                    16.4695557392
 POWELL| Reached  32% of maximal function calls                    16.4695557392
 POWELL| Reached  34% of maximal function calls                    16.4695557392
 POWELL| Reached  36% of maximal function calls                    16.4695557392
 POWELL| Reached  38% of maximal function calls                    16.4695557392
 POWELL| Reached  40% of maximal function calls                    16.4695557392
 POWELL| Reached  42% of maximal function calls                    16.4695557392
 POWELL| Reached  44% of maximal function calls                    16.4695557392
 POWELL| Reached  46% of maximal function calls                    16.4695557392
 POWELL| Reached  48% of maximal function calls                    16.4695557392
 POWELL| Reached  50% of maximal function calls                    16.4695557392
 POWELL| Reached  52% of maximal function calls                    16.4695557392
 POWELL| Reached  54% of maximal function calls                    16.4695557392
 POWELL| Reached  56% of maximal function calls                    16.4695557392
 POWELL| Reached  57% of maximal function calls                    16.4695557392
 POWELL| Reached  60% of maximal function calls                    16.4695557392
 POWELL| Reached  62% of maximal function calls                    16.4673963408
 POWELL| Reached  64% of maximal function calls                    16.4673963408
 POWELL| Reached  66% of maximal function calls                    16.4673171280
 POWELL| Reached  68% of maximal function calls                    16.4673171280
 POWELL| Reached  70% of maximal function calls                    16.4673171280
 POWELL| Reached  72% of maximal function calls                    16.4672768392
 POWELL| Reached  74% of maximal function calls                    16.4672768392
 POWELL| Reached  76% of maximal function calls                    16.4672768392
 POWELL| Reached  78% of maximal function calls                    16.4672768392
 POWELL| Reached  80% of maximal function calls                    16.4672768392
 POWELL| Reached  82% of maximal function calls                    16.4672623799
 POWELL| Reached  84% of maximal function calls                    16.4672623799
 POWELL| Reached  86% of maximal function calls                    16.4672623799
 POWELL| Reached  88% of maximal function calls                    16.4672623799
 POWELL| Reached  90% of maximal function calls                    16.4671304197
 POWELL| Reached  92% of maximal function calls                    16.4671304197
 POWELL| Reached  94% of maximal function calls                    16.4671300615
 POWELL| Reached  96% of maximal function calls                    16.4671300615
 POWELL| Reached  98% of maximal function calls                    16.4671298401
 POWELL| Reached 100% of maximal function calls                    16.4671274583
 POWELL| Reached 100% of maximal function calls                    16.4671091015
 POWELL| Exceeding maximum number of steps
 POWELL| Reached 100% of maximal function calls                    16.4671091015
 POWELL| RMS average of variables                                   0.0000546410
 POWELL| Start optimization   3 of total 100               rhobeg =   0.00019208
 POWELL| Inital value of function                                  16.4671091015
 POWELL| Reached   6% of maximal function calls                    16.4671091015
 POWELL| Reached   8% of maximal function calls                    16.4671091015
 POWELL| Reached  10% of maximal function calls                    16.4671091015
 POWELL| Reached  12% of maximal function calls                    16.4671091015
 POWELL| Reached  14% of maximal function calls                    16.4671091015
 POWELL| Reached  16% of maximal function calls                    16.4671091015
 POWELL| Reached  18% of maximal function calls                    16.4671091015
 POWELL| Reached  20% of maximal function calls                    16.4671091015
 POWELL| Reached  22% of maximal function calls                    16.4671091015
 POWELL| Reached  24% of maximal function calls                    16.4671091015
 POWELL| Reached  26% of maximal function calls                    16.4671091015
 POWELL| Reached  28% of maximal function calls                    16.4671091015
 POWELL| Reached  30% of maximal function calls                    16.4671091015
 POWELL| Reached  32% of maximal function calls                    16.4671091015
 POWELL| Reached  34% of maximal function calls                    16.4671091015
 POWELL| Reached  36% of maximal function calls                    16.4671091015
 POWELL| Reached  38% of maximal function calls                    16.4671091015
 POWELL| Reached  40% of maximal function calls                    16.4671091015
 POWELL| Reached  42% of maximal function calls                    16.4671091015
 POWELL| Reached  44% of maximal function calls                    16.4011744442
 POWELL| Reached  46% of maximal function calls                    16.4011744442
 POWELL| Reached  48% of maximal function calls                    16.4011744442
 POWELL| Reached  50% of maximal function calls                    16.4011744442
 POWELL| Reached  52% of maximal function calls                    16.4011744442
 POWELL| Reached  54% of maximal function calls                    16.4011744442
 POWELL| Reached  56% of maximal function calls                    16.4011744442
 POWELL| Reached  57% of maximal function calls                    16.4011744442
 POWELL| Reached  60% of maximal function calls                    16.4011744442
 POWELL| Reached  62% of maximal function calls                    16.4011744442
 POWELL| Reached  64% of maximal function calls                    16.4011744442
 POWELL| Reached  66% of maximal function calls                    16.4011744442
 POWELL| Reached  68% of maximal function calls                    16.4007191316
 POWELL| Reached  70% of maximal function calls                    16.4006496687
 POWELL| Reached  72% of maximal function calls                    16.3997618390
 POWELL| Reached  74% of maximal function calls                    16.3997618390
 POWELL| Reached  76% of maximal function calls                    16.3997618390
 POWELL| Reached  78% of maximal function calls                    16.3997618390
 POWELL| Reached  80% of maximal function calls                    16.3997613386
 POWELL| Reached  82% of maximal function calls                    16.3997613386
 POWELL| Reached  84% of maximal function calls                    16.3997613386
 POWELL| Reached  86% of maximal function calls                    16.3997613386
 POWELL| Reached  88% of maximal function calls                    16.3997613386
 POWELL| Reached  90% of maximal function calls                    16.3997613386
 POWELL| Reached  92% of maximal function calls                    16.3996132000
 POWELL| Reached  94% of maximal function calls                    16.3995875615
 POWELL| Reached  96% of maximal function calls                    16.3995875615
 POWELL| Reached  98% of maximal function calls                    16.3995549950
 POWELL| Reached 100% of maximal function calls                    16.3995549950
 POWELL| Reached 100% of maximal function calls                    16.3995549950
 POWELL| Exceeding maximum number of steps
 POWELL| Reached 100% of maximal function calls                    16.3995549950
 POWELL| RMS average of variables                                   0.0000533208
 POWELL| Start optimization   4 of total 100               rhobeg =   0.00018824
 POWELL| Inital value of function                                  16.3995549950
 POWELL| Reached   6% of maximal function calls                    16.3995549950
 POWELL| Reached   8% of maximal function calls                    16.3995549950
 POWELL| Reached  10% of maximal function calls                    16.3995549950
 POWELL| Reached  12% of maximal function calls                    16.3995549950
 POWELL| Reached  14% of maximal function calls                    16.3995549950
 POWELL| Reached  16% of maximal function calls                    16.3995549950
 POWELL| Reached  18% of maximal function calls                    16.3995549950
 POWELL| Reached  20% of maximal function calls                    16.3995549950
 POWELL| Reached  22% of maximal function calls                    16.3995549950
 POWELL| Reached  24% of maximal function calls                    16.3995549950
 POWELL| Reached  26% of maximal function calls                    16.3995549950
 POWELL| Reached  28% of maximal function calls                    16.3995549950
 POWELL| Reached  30% of maximal function calls                    16.3995549950
 POWELL| Reached  32% of maximal function calls                    16.3995549950
 POWELL| Reached  34% of maximal function calls                    16.3995549950
 POWELL| Reached  36% of maximal function calls                    16.3995549950
 POWELL| Reached  38% of maximal function calls                    16.3995549950
 POWELL| Reached  40% of maximal function calls                    16.3995549950
 POWELL| Reached  42% of maximal function calls                    16.3995549950
 POWELL| Reached  44% of maximal function calls                    16.3762710461
 POWELL| Reached  46% of maximal function calls                    16.3762710461
 POWELL| Reached  48% of maximal function calls                    16.3762710461
 POWELL| Reached  50% of maximal function calls                    16.3762710461
 POWELL| Reached  52% of maximal function calls                    16.3762710461
 POWELL| Reached  54% of maximal function calls                    16.3762710461
 POWELL| Reached  56% of maximal function calls                    16.3762710461
 POWELL| Reached  57% of maximal function calls                    16.3738290833
 POWELL| Reached  60% of maximal function calls                    16.3738290833
 POWELL| Reached  62% of maximal function calls                    16.3738290833
 POWELL| Reached  64% of maximal function calls                    16.3738290833
 POWELL| Reached  66% of maximal function calls                    16.3738290833
 POWELL| Reached  68% of maximal function calls                    16.3735855257
 POWELL| Reached  70% of maximal function calls                    16.3735548188
 POWELL| Reached  72% of maximal function calls                    16.3707280425
 POWELL| Reached  74% of maximal function calls                    16.3688041555
 POWELL| Reached  76% of maximal function calls                    16.3688006087
 POWELL| Reached  78% of maximal function calls                    16.3688006087
 POWELL| Reached  80% of maximal function calls                    16.3688006087
 POWELL| Reached  82% of maximal function calls                    16.3688006087
 POWELL| Reached  84% of maximal function calls                    16.3687945485
 POWELL| Reached  86% of maximal function calls                    16.3687945485
 POWELL| Reached  88% of maximal function calls                    16.3687531664
 POWELL| Reached  90% of maximal function calls                    16.3687531664
 POWELL| Reached  92% of maximal function calls                    16.3687443445
 POWELL| Reached  94% of maximal function calls                    16.3686983457
 POWELL| Reached  96% of maximal function calls                    16.3686983457
 POWELL| Reached  98% of maximal function calls                    16.3686983457
 POWELL| Reached 100% of maximal function calls                    16.3686590289
 POWELL| Reached 100% of maximal function calls                    16.3685811981
 POWELL| Exceeding maximum number of steps
 POWELL| Reached 100% of maximal function calls                    16.3685811981
 POWELL| RMS average of variables                                   0.0000575198
 POWELL| Start optimization   5 of total 100               rhobeg =   0.00018447
 POWELL| Inital value of function                                  16.3685811981
 POWELL| Reached   6% of maximal function calls                    16.3685811981
 POWELL| Reached   8% of maximal function calls                    16.3685811981
 POWELL| Reached  10% of maximal function calls                    16.3685811981
 POWELL| Reached  12% of maximal function calls                    16.3685811981
 POWELL| Reached  14% of maximal function calls                    16.3685811981
 POWELL| Reached  16% of maximal function calls                    16.3685811981
 POWELL| Reached  18% of maximal function calls                    16.3685811981
 POWELL| Reached  20% of maximal function calls                    16.3685811981
 POWELL| Reached  22% of maximal function calls                    16.3685811981
 POWELL| Reached  24% of maximal function calls                    16.3622208884
 POWELL| Reached  26% of maximal function calls                    16.3622208884
 POWELL| Reached  28% of maximal function calls                    16.3622208884
 POWELL| Reached  30% of maximal function calls                    16.3622208884
 POWELL| Reached  32% of maximal function calls                    16.3622208884
 POWELL| Reached  34% of maximal function calls                    16.3620404874
 POWELL| Reached  36% of maximal function calls                    16.3620404874
 POWELL| Reached  38% of maximal function calls                    16.3620404874
 POWELL| Reached  40% of maximal function calls                    16.3620404874
 POWELL| Reached  42% of maximal function calls                    16.3620404874
 POWELL| Reached  44% of maximal function calls                    16.3557251281
 POWELL| Reached  46% of maximal function calls                    16.3557251281
 POWELL| Reached  48% of maximal function calls                    16.3557251281
 POWELL| Reached  50% of maximal function calls                    16.3557251281
 POWELL| Reached  52% of maximal function calls                    16.3557251281
 POWELL| Reached  54% of maximal function calls                    16.3557251281
 POWELL| Reached  56% of maximal function calls                    16.3557251281
 POWELL| Reached  57% of maximal function calls                    16.3557251281
 POWELL| Reached  60% of maximal function calls                    16.3557251281
 POWELL| Reached  62% of maximal function calls                    16.3557251281
 POWELL| Reached  64% of maximal function calls                    16.3557251281
 POWELL| Reached  66% of maximal function calls                    16.3557251281
 POWELL| Reached  68% of maximal function calls                    16.3554941616
 POWELL| Reached  70% of maximal function calls                    16.3554837969
 POWELL| Reached  72% of maximal function calls                    16.3509805996
 POWELL| Reached  74% of maximal function calls                    16.3477854821
 POWELL| Reached  76% of maximal function calls                    16.3477808771
 POWELL| Reached  78% of maximal function calls                    16.3477808771
 POWELL| Reached  80% of maximal function calls                    16.3477808771
 POWELL| Reached  82% of maximal function calls                    16.3477808771
 POWELL| Reached  84% of maximal function calls                    16.3477702142
 POWELL| Reached  86% of maximal function calls                    16.3477561017
 POWELL| Reached  88% of maximal function calls                    16.3477133003
 POWELL| Reached  90% of maximal function calls                    16.3476101661
 POWELL| Reached  92% of maximal function calls                    16.3476087187
 POWELL| Reached  94% of maximal function calls                    16.3475104669
 POWELL| Reached  96% of maximal function calls                    16.3475104669
 POWELL| Reached  98% of maximal function calls                    16.3475104669
 POWELL| Reached 100% of maximal function calls                    16.3474550780
 POWELL| Reached 100% of maximal function calls                    16.3474053478
 POWELL| Exceeding maximum number of steps
 POWELL| Reached 100% of maximal function calls                    16.3474053478
 POWELL| RMS average of variables                                   0.0000512492
 POWELL| Start optimization   6 of total 100               rhobeg =   0.00018078
 POWELL| Inital value of function                                  16.3474053478
 POWELL| Reached   6% of maximal function calls                    16.3474053478
 POWELL| Reached   8% of maximal function calls                    16.3474053478
 POWELL| Reached  10% of maximal function calls                    16.3474053478
 POWELL| Reached  12% of maximal function calls                    16.3474053478
 POWELL| Reached  14% of maximal function calls                    16.3474053478
 POWELL| Reached  16% of maximal function calls                    16.3474053478
 POWELL| Reached  18% of maximal function calls                    16.3474053478
 POWELL| Reached  20% of maximal function calls                    16.3474053478
 POWELL| Reached  22% of maximal function calls                    16.3015667879
 POWELL| Reached  24% of maximal function calls                    16.3015667879
 POWELL| Reached  26% of maximal function calls                    16.3015667879
 POWELL| Reached  28% of maximal function calls                    16.3015667879
 POWELL| Reached  30% of maximal function calls                    16.3015667879
 POWELL| Reached  32% of maximal function calls                    16.3015667879
 POWELL| Reached  34% of maximal function calls                    16.3015667879
 POWELL| Reached  36% of maximal function calls                    16.3015667879
 POWELL| Reached  38% of maximal function calls                    16.3015667879
 POWELL| Reached  40% of maximal function calls                    16.3015667879
 POWELL| Reached  42% of maximal function calls                    16.3015667879
 POWELL| Reached  44% of maximal function calls                    16.3015667879
 POWELL| Reached  46% of maximal function calls                    16.3015667879
 POWELL| Reached  48% of maximal function calls                    16.3015667879
 POWELL| Reached  50% of maximal function calls                    16.3015667879
 POWELL| Reached  52% of maximal function calls                    16.3015667879
 POWELL| Reached  54% of maximal function calls                    16.3015667879
 POWELL| Reached  56% of maximal function calls                    16.3015667879
 POWELL| Reached  57% of maximal function calls                    16.3015667879
 POWELL| Reached  60% of maximal function calls                    16.3015667879
 POWELL| Reached  62% of maximal function calls                    16.3015667879
 POWELL| Reached  64% of maximal function calls                    16.3015667879
 POWELL| Reached  66% of maximal function calls                    16.3015667879
 POWELL| Reached  68% of maximal function calls                    16.3013607153
 POWELL| Reached  70% of maximal function calls                    16.3013607153
 POWELL| Reached  72% of maximal function calls                    16.3010650787
 POWELL| Reached  74% of maximal function calls                    16.3009905633
 POWELL| Reached  76% of maximal function calls                    16.3009905633
 POWELL| Reached  78% of maximal function calls                    16.3009905633
 POWELL| Reached  80% of maximal function calls                    16.3009891048
 POWELL| Reached  82% of maximal function calls                    16.3009891048
 POWELL| Reached  84% of maximal function calls                    16.3009891048
 POWELL| Reached  86% of maximal function calls                    16.3009891048
 POWELL| Reached  88% of maximal function calls                    16.3009891048
 POWELL| Reached  90% of maximal function calls                    16.3009823380
 POWELL| Reached  92% of maximal function calls                    16.3009823380
 POWELL| Reached  94% of maximal function calls                    16.3009582382
 POWELL| Reached  96% of maximal function calls                    16.3009582382
 POWELL| Reached  98% of maximal function calls                    16.3009582382
 POWELL| Reached 100% of maximal function calls                    16.3009562284
 POWELL| Reached 100% of maximal function calls                    16.3009562284
 POWELL| Exceeding maximum number of steps
 POWELL| Reached 100% of maximal function calls                    16.3009562284
 POWELL| RMS average of variables                                   0.0000501839
 POWELL| Start optimization   7 of total 100               rhobeg =   0.00017717
 POWELL| Inital value of function                                  16.3009562284
 POWELL| Reached   6% of maximal function calls                    16.3009562284
 POWELL| Reached   8% of maximal function calls                    16.3009562284
 POWELL| Reached  10% of maximal function calls                    16.3009562284
 POWELL| Reached  12% of maximal function calls                    16.3009562284
 POWELL| Reached  14% of maximal function calls                    16.3009562284
 POWELL| Reached  16% of maximal function calls                    16.3009562284
 POWELL| Reached  18% of maximal function calls                    16.3009562284
 POWELL| Reached  20% of maximal function calls                    16.3009562284
 POWELL| Reached  22% of maximal function calls                    16.3009562284
 POWELL| Reached  24% of maximal function calls                    16.3009562284
 POWELL| Reached  26% of maximal function calls                    16.3009562284
 POWELL| Reached  28% of maximal function calls                    16.3009562284
 POWELL| Reached  30% of maximal function calls                    16.3009562284
 POWELL| Reached  32% of maximal function calls                    16.3009562284
 POWELL| Reached  34% of maximal function calls                    16.3009562284
 POWELL| Reached  36% of maximal function calls                    16.3009562284
 POWELL| Reached  38% of maximal function calls                    16.3009562284
 POWELL| Reached  40% of maximal function calls                    16.3009562284
 POWELL| Reached  42% of maximal function calls                    16.3009562284
 POWELL| Reached  44% of maximal function calls                    16.2542260277
 POWELL| Reached  46% of maximal function calls                    16.2542260277
 POWELL| Reached  48% of maximal function calls                    16.2542260277
 POWELL| Reached  50% of maximal function calls                    16.2542260277
 POWELL| Reached  52% of maximal function calls                    16.2542260277
 POWELL| Reached  54% of maximal function calls                    16.2542260277
 POWELL| Reached  56% of maximal function calls                    16.2542260277
 POWELL| Reached  57% of maximal function calls                    16.2508875462
 POWELL| Reached  60% of maximal function calls                    16.2508875462
 POWELL| Reached  62% of maximal function calls                    16.2508875462
 POWELL| Reached  64% of maximal function calls                    16.2508875462
 POWELL| Reached  66% of maximal function calls                    16.2508875462
 POWELL| Reached  68% of maximal function calls                    16.2506870976
 POWELL| Reached  70% of maximal function calls                    16.2506503352
 POWELL| Reached  72% of maximal function calls                    16.2485788503
 POWELL| Reached  74% of maximal function calls                    16.2471786556
 POWELL| Reached  76% of maximal function calls                    16.2471773212
 POWELL| Reached  78% of maximal function calls                    16.2471765084
 POWELL| Reached  80% of maximal function calls                    16.2471765084
 POWELL| Reached  82% of maximal function calls                    16.2471765084
 POWELL| Reached  84% of maximal function calls                    16.2471765084
 POWELL| Reached  86% of maximal function calls                    16.2471765084
 POWELL| Reached  88% of maximal function calls                    16.2471714843
 POWELL| Reached  90% of maximal function calls                    16.2471131973
 POWELL| Reached  92% of maximal function calls                    16.2470441768
 POWELL| Reached  94% of maximal function calls                    16.2468582219
 POWELL| Reached  96% of maximal function calls                    16.2466177087
 POWELL| Reached  98% of maximal function calls                    16.2461892154
 POWELL| Reached 100% of maximal function calls                    16.2452531158
 POWELL| Reached 100% of maximal function calls                    16.2434120142
 POWELL| Exceeding maximum number of steps
 POWELL| Reached 100% of maximal function calls                    16.2434120142
 POWELL| RMS average of variables                                   0.0000541313
 POWELL| Start optimization   8 of total 100               rhobeg =   0.00017363
 POWELL| Inital value of function                                  16.2434120142
 POWELL| Reached   6% of maximal function calls                    16.2434120142
 POWELL| Reached   8% of maximal function calls                    16.2434120142
 POWELL| Reached  10% of maximal function calls                    16.2434120142
 POWELL| Reached  12% of maximal function calls                    16.2434120142
 POWELL| Reached  14% of maximal function calls                    16.2434120142
 POWELL| Reached  16% of maximal function calls                    16.2434120142
 POWELL| Reached  18% of maximal function calls                    16.2434120142
 POWELL| Reached  20% of maximal function calls                    16.2434120142
 POWELL| Reached  22% of maximal function calls                    16.2434120142
 POWELL| Reached  24% of maximal function calls                    16.2434120142
 POWELL| Reached  26% of maximal function calls                    16.2434120142
 POWELL| Reached  28% of maximal function calls                    16.2434120142
 POWELL| Reached  30% of maximal function calls                    16.2434120142
 POWELL| Reached  32% of maximal function calls                    16.2434120142
 POWELL| Reached  34% of maximal function calls                    16.2407037058
 POWELL| Reached  36% of maximal function calls                    16.2407037058
 POWELL| Reached  38% of maximal function calls                    16.2407037058
 POWELL| Reached  40% of maximal function calls                    16.2407037058
 POWELL| Reached  42% of maximal function calls                    16.2407037058
 POWELL| Reached  44% of maximal function calls                    16.2181041093
 POWELL| Reached  46% of maximal function calls                    16.2181041093
 POWELL| Reached  48% of maximal function calls                    16.2181041093
 POWELL| Reached  50% of maximal function calls                    16.2181041093
 POWELL| Reached  52% of maximal function calls                    16.2181041093
 POWELL| Reached  54% of maximal function calls                    16.2181041093
 POWELL| Reached  56% of maximal function calls                    16.2181041093
 POWELL| Reached  57% of maximal function calls                    16.2168467389
 POWELL| Reached  60% of maximal function calls                    16.2168467389
 POWELL| Reached  62% of maximal function calls                    16.2168467389
 POWELL| Reached  64% of maximal function calls                    16.2168467389
 POWELL| Reached  66% of maximal function calls                    16.2168467389
 POWELL| Reached  68% of maximal function calls                    16.2166344377
 POWELL| Reached  70% of maximal function calls                    16.2166151476
 POWELL| Reached  72% of maximal function calls                    16.2131016195
 POWELL| Reached  74% of maximal function calls                    16.2106688323
 POWELL| Reached  76% of maximal function calls                    16.2106661273
 POWELL| Reached  78% of maximal function calls                    16.2106628563
 POWELL| Reached  80% of maximal function calls                    16.2106628563
 POWELL| Reached  82% of maximal function calls                    16.2106557133
 POWELL| Reached  84% of maximal function calls                    16.2106557133
 POWELL| Reached  86% of maximal function calls                    16.2106557133
 POWELL| Reached  88% of maximal function calls                    16.2106557133
 POWELL| Reached  90% of maximal function calls                    16.2105518381
 POWELL| Reached  92% of maximal function calls                    16.2105518381
 POWELL| Reached  94% of maximal function calls                    16.2104501685
 POWELL| Reached  96% of maximal function calls                    16.2104501685
 POWELL| Reached  98% of maximal function calls                    16.2104093964
 POWELL| Reached 100% of maximal function calls                    16.2104093964
 POWELL| Reached 100% of maximal function calls                    16.2103565125
 POWELL| Exceeding maximum number of steps
 POWELL| Reached 100% of maximal function calls                    16.2103565125
 POWELL| RMS average of variables                                   0.0000530537
 POWELL| Start optimization   9 of total 100               rhobeg =   0.00017015
 POWELL| Inital value of function                                  16.2103565125
 POWELL| Reached   6% of maximal function calls                    16.2103565125
 POWELL| Reached   8% of maximal function calls                    16.2103565125
 POWELL| Reached  10% of maximal function calls                    16.2103565125
 POWELL| Reached  12% of maximal function calls                    16.2103565125
 POWELL| Reached  14% of maximal function calls                    16.2103565125
 POWELL| Reached  16% of maximal function calls                    16.2103565125
 POWELL| Reached  18% of maximal function calls                    16.2103565125
 POWELL| Reached  20% of maximal function calls                    16.2103565125
 POWELL| Reached  22% of maximal function calls                    16.1906965664
 POWELL| Reached  24% of maximal function calls                    16.1906965664
 POWELL| Reached  26% of maximal function calls                    16.1906965664
 POWELL| Reached  28% of maximal function calls                    16.1906965664
 POWELL| Reached  30% of maximal function calls                    16.1906965664
 POWELL| Reached  32% of maximal function calls                    16.1906965664
 POWELL| Reached  34% of maximal function calls                    16.1906965664
 POWELL| Reached  36% of maximal function calls                    16.1906965664
 POWELL| Reached  38% of maximal function calls                    16.1906965664
 POWELL| Reached  40% of maximal function calls                    16.1906965664
 POWELL| Reached  42% of maximal function calls                    16.1906965664
 POWELL| Reached  44% of maximal function calls                    16.1906965664
 POWELL| Reached  46% of maximal function calls                    16.1906965664
 POWELL| Reached  48% of maximal function calls                    16.1906965664
 POWELL| Reached  50% of maximal function calls                    16.1906965664
 POWELL| Reached  52% of maximal function calls                    16.1906965664
 POWELL| Reached  54% of maximal function calls                    16.1906965664
 POWELL| Reached  56% of maximal function calls                    16.1906965664
 POWELL| Reached  57% of maximal function calls                    16.1906965664
 POWELL| Reached  60% of maximal function calls                    16.1906965664
 POWELL| Reached  62% of maximal function calls                    16.1906965664
 POWELL| Reached  64% of maximal function calls                    16.1906965664
 POWELL| Reached  66% of maximal function calls                    16.1906965664
 POWELL| Reached  68% of maximal function calls                    16.1904965339
 POWELL| Reached  70% of maximal function calls                    16.1904965339
 POWELL| Reached  72% of maximal function calls                    16.1904965339
 POWELL| Reached  74% of maximal function calls                    16.1904965339
 POWELL| Reached  76% of maximal function calls                    16.1904965339
 POWELL| Reached  78% of maximal function calls                    16.1904942719
 POWELL| Reached  80% of maximal function calls                    16.1904942719
 POWELL| Reached  82% of maximal function calls                    16.1904942719
 POWELL| Reached  84% of maximal function calls                    16.1904942719
 POWELL| Reached  86% of maximal function calls                    16.1904913049
 POWELL| Reached  88% of maximal function calls                    16.1904860259
 POWELL| Reached  90% of maximal function calls                    16.1904860259
 POWELL| Reached  92% of maximal function calls                    16.1904860259
 POWELL| Reached  94% of maximal function calls                    16.1903525348
 POWELL| Reached  96% of maximal function calls                    16.1903525348
 POWELL| Reached  98% of maximal function calls                    16.1880939273
 POWELL| Reached 100% of maximal function calls                    16.1880939273
 POWELL| Reached 100% of maximal function calls                    16.1880925678
 POWELL| Exceeding maximum number of steps
 POWELL| Reached 100% of maximal function calls                    16.1880925678
 POWELL| RMS average of variables                                   0.0000471906
 POWELL| Start optimization  10 of total 100               rhobeg =   0.00016675
 POWELL| Inital value of function                                  16.1880925678
 POWELL| Reached   6% of maximal function calls                    16.1880925678
 POWELL| Reached   8% of maximal function calls                    16.1880925678
 POWELL| Reached  10% of maximal function calls                    16.1880925678
 POWELL| Reached  12% of maximal function calls                    16.1880925678
 POWELL| Reached  14% of maximal function calls                    16.1880925678
 POWELL| Reached  16% of maximal function calls                    16.1880925678
 POWELL| Reached  18% of maximal function calls                    16.1880925678
 POWELL| Reached  20% of maximal function calls                    16.1880925678
 POWELL| Reached  22% of maximal function calls                    16.1880925678
 POWELL| Reached  24% of maximal function calls                    16.1880925678
 POWELL| Reached  26% of maximal function calls                    16.1880925678
 POWELL| Reached  28% of maximal function calls                    16.1880925678
 POWELL| Reached  30% of maximal function calls                    16.1880925678
 POWELL| Reached  32% of maximal function calls                    16.1880925678
 POWELL| Reached  34% of maximal function calls                    16.1880925678
 POWELL| Reached  36% of maximal function calls                    16.1880925678
 POWELL| Reached  38% of maximal function calls                    16.1880925678
 POWELL| Reached  40% of maximal function calls                    16.1880925678
 POWELL| Reached  42% of maximal function calls                    16.1880925678
 POWELL| Reached  44% of maximal function calls                    16.1386197940
 POWELL| Reached  46% of maximal function calls                    16.1386197940
 POWELL| Reached  48% of maximal function calls                    16.1386197940
 POWELL| Reached  50% of maximal function calls                    16.1386197940
 POWELL| Reached  52% of maximal function calls                    16.1386197940
 POWELL| Reached  54% of maximal function calls                    16.1386197940
 POWELL| Reached  56% of maximal function calls                    16.1386197940
 POWELL| Reached  57% of maximal function calls                    16.1350169530
 POWELL| Reached  60% of maximal function calls                    16.1350169530
 POWELL| Reached  62% of maximal function calls                    16.1350169530
 POWELL| Reached  64% of maximal function calls                    16.1350169530
 POWELL| Reached  66% of maximal function calls                    16.1350169530
 POWELL| Reached  68% of maximal function calls                    16.1347508575
 POWELL| Reached  70% of maximal function calls                    16.1347083186
 POWELL| Reached  72% of maximal function calls                    16.1329694248
 POWELL| Reached  74% of maximal function calls                    16.1317942132
 POWELL| Reached  76% of maximal function calls                    16.1317355812
 POWELL| Reached  78% of maximal function calls                    16.1317338070
 POWELL| Reached  80% of maximal function calls                    16.1317338070
 POWELL| Reached  82% of maximal function calls                    16.1317338070
 POWELL| Reached  84% of maximal function calls                    16.1317320391
 POWELL| Reached  86% of maximal function calls                    16.1317320391
 POWELL| Reached  88% of maximal function calls                    16.1317320391
 POWELL| Reached  90% of maximal function calls                    16.1317272160
 POWELL| Reached  92% of maximal function calls                    16.1317272160
 POWELL| Reached  94% of maximal function calls                    16.1317272160
 POWELL| Reached  96% of maximal function calls                    16.1317272160
 POWELL| Reached  98% of maximal function calls                    16.1317272160
 POWELL| Reached 100% of maximal function calls                    16.1317272160
 POWELL| Reached 100% of maximal function calls                    16.1317272160
 POWELL| Exceeding maximum number of steps
 POWELL| Reached 100% of maximal function calls                    16.1317272160
 POWELL| RMS average of variables                                   0.0000509474
[...]
 POWELL| RMS average of variables                                   0.0000087865
 POWELL| Start optimization  98 of total 100               rhobeg =   0.00002818
 POWELL| Inital value of function                                   6.6394578755
 POWELL| Reached   6% of maximal function calls                     6.6394578755
 POWELL| Reached   8% of maximal function calls                     6.6394578755
 POWELL| Reached  10% of maximal function calls                     6.6394578755
 POWELL| Reached  12% of maximal function calls                     6.6394578755
 POWELL| Reached  14% of maximal function calls                     6.6321327581
 POWELL| Reached  16% of maximal function calls                     6.6321327581
 POWELL| Reached  18% of maximal function calls                     6.6321327581
 POWELL| Reached  20% of maximal function calls                     6.6321327581
 POWELL| Reached  22% of maximal function calls                     6.6129034204
 POWELL| Reached  24% of maximal function calls                     6.6129034204
 POWELL| Reached  26% of maximal function calls                     6.6129034204
 POWELL| Reached  28% of maximal function calls                     6.6129034204
 POWELL| Reached  30% of maximal function calls                     6.6129034204
 POWELL| Reached  32% of maximal function calls                     6.6129034204
 POWELL| Reached  34% of maximal function calls                     6.6129034204
 POWELL| Reached  36% of maximal function calls                     6.6129034204
 POWELL| Reached  38% of maximal function calls                     6.6129034204
 POWELL| Reached  40% of maximal function calls                     6.6129034204
 POWELL| Reached  42% of maximal function calls                     6.6129034204
 POWELL| Reached  44% of maximal function calls                     6.6129034204
 POWELL| Reached  46% of maximal function calls                     6.6129034204
 POWELL| Reached  48% of maximal function calls                     6.6129034204
 POWELL| Reached  50% of maximal function calls                     6.6129034204
 POWELL| Reached  52% of maximal function calls                     6.6129034204
 POWELL| Reached  54% of maximal function calls                     6.6129034204
 POWELL| Reached  56% of maximal function calls                     6.6129034204
 POWELL| Reached  57% of maximal function calls                     6.6104068121
 POWELL| Reached  60% of maximal function calls                     6.6104068121
 POWELL| Reached  62% of maximal function calls                     6.6104068121
 POWELL| Reached  64% of maximal function calls                     6.6104068121
 POWELL| Reached  66% of maximal function calls                     6.6104068121
 POWELL| Reached  68% of maximal function calls                     6.6102825422
 POWELL| Reached  70% of maximal function calls                     6.6102548708
 POWELL| Reached  72% of maximal function calls                     6.6097292202
 POWELL| Reached  74% of maximal function calls                     6.6093352855
 POWELL| Reached  76% of maximal function calls                     6.6093338266
 POWELL| Reached  78% of maximal function calls                     6.6093338266
 POWELL| Reached  80% of maximal function calls                     6.6093264469
 POWELL| Reached  82% of maximal function calls                     6.6093264469
 POWELL| Reached  84% of maximal function calls                     6.6093246569
 POWELL| Reached  86% of maximal function calls                     6.6093246569
 POWELL| Reached  88% of maximal function calls                     6.6093241228
 POWELL| Reached  90% of maximal function calls                     6.6093241228
 POWELL| Reached  92% of maximal function calls                     6.6093241228
 POWELL| Reached  94% of maximal function calls                     6.6093241228
 POWELL| Reached  96% of maximal function calls                     6.6093240968
 POWELL| Reached  98% of maximal function calls                     6.6093134057
 POWELL| Reached 100% of maximal function calls                     6.6093000362
 POWELL| Reached 100% of maximal function calls                     6.6093000362
 POWELL| Exceeding maximum number of steps
 POWELL| Reached 100% of maximal function calls                     6.6093000362
 POWELL| RMS average of variables                                   0.0000086105
 POWELL| Start optimization  99 of total 100               rhobeg =   0.00002762
 POWELL| Inital value of function                                   6.6093000362
 POWELL| Reached   6% of maximal function calls                     6.6093000362
 POWELL| Reached   8% of maximal function calls                     6.6093000362
 POWELL| Reached  10% of maximal function calls                     6.6093000362
 POWELL| Reached  12% of maximal function calls                     6.6093000362
 POWELL| Reached  14% of maximal function calls                     6.6020891466
 POWELL| Reached  16% of maximal function calls                     6.6020891466
 POWELL| Reached  18% of maximal function calls                     6.6020891466
 POWELL| Reached  20% of maximal function calls                     6.6020891466
 POWELL| Reached  22% of maximal function calls                     6.5865277681
 POWELL| Reached  24% of maximal function calls                     6.5865277681
 POWELL| Reached  26% of maximal function calls                     6.5865277681
 POWELL| Reached  28% of maximal function calls                     6.5865277681
 POWELL| Reached  30% of maximal function calls                     6.5865277681
 POWELL| Reached  32% of maximal function calls                     6.5865277681
 POWELL| Reached  34% of maximal function calls                     6.5865277681
 POWELL| Reached  36% of maximal function calls                     6.5865277681
 POWELL| Reached  38% of maximal function calls                     6.5865277681
 POWELL| Reached  40% of maximal function calls                     6.5865277681
 POWELL| Reached  42% of maximal function calls                     6.5865277681
 POWELL| Reached  44% of maximal function calls                     6.5865277681
 POWELL| Reached  46% of maximal function calls                     6.5865277681
 POWELL| Reached  48% of maximal function calls                     6.5865277681
 POWELL| Reached  50% of maximal function calls                     6.5865277681
 POWELL| Reached  52% of maximal function calls                     6.5865277681
 POWELL| Reached  54% of maximal function calls                     6.5865277681
 POWELL| Reached  56% of maximal function calls                     6.5865277681
 POWELL| Reached  57% of maximal function calls                     6.5844031178
 POWELL| Reached  60% of maximal function calls                     6.5844031178
 POWELL| Reached  62% of maximal function calls                     6.5844031178
 POWELL| Reached  64% of maximal function calls                     6.5844031178
 POWELL| Reached  66% of maximal function calls                     6.5844031178
 POWELL| Reached  68% of maximal function calls                     6.5842820066
 POWELL| Reached  70% of maximal function calls                     6.5842576782
 POWELL| Reached  72% of maximal function calls                     6.5838481306
 POWELL| Reached  74% of maximal function calls                     6.5835405647
 POWELL| Reached  76% of maximal function calls                     6.5835401585
 POWELL| Reached  78% of maximal function calls                     6.5835383709
 POWELL| Reached  80% of maximal function calls                     6.5835383709
 POWELL| Reached  82% of maximal function calls                     6.5835382404
 POWELL| Reached  84% of maximal function calls                     6.5835366665
 POWELL| Reached  86% of maximal function calls                     6.5835366665
 POWELL| Reached  88% of maximal function calls                     6.5835366665
 POWELL| Reached  90% of maximal function calls                     6.5835365984
 POWELL| Reached  92% of maximal function calls                     6.5835365984
 POWELL| Reached  94% of maximal function calls                     6.5835365984
 POWELL| Reached  96% of maximal function calls                     6.5835365984
 POWELL| Reached  98% of maximal function calls                     6.5835365984
 POWELL| Reached 100% of maximal function calls                     6.5835329338
 POWELL| Reached 100% of maximal function calls                     6.5835304279
 POWELL| Exceeding maximum number of steps
 POWELL| Reached 100% of maximal function calls                     6.5835304279
 POWELL| RMS average of variables                                   0.0000084397
 POWELL| Start optimization 100 of total 100               rhobeg =   0.00002707
 POWELL| Inital value of function                                   6.5835304279
 POWELL| Reached   6% of maximal function calls                     6.5835304279
 POWELL| Reached   8% of maximal function calls                     6.5835304279
 POWELL| Reached  10% of maximal function calls                     6.5835304279
 POWELL| Reached  12% of maximal function calls                     6.5835304279
 POWELL| Reached  14% of maximal function calls                     6.5764325630
 POWELL| Reached  16% of maximal function calls                     6.5764325630
 POWELL| Reached  18% of maximal function calls                     6.5764325630
 POWELL| Reached  20% of maximal function calls                     6.5764325630
 POWELL| Reached  22% of maximal function calls                     6.5643331772
 POWELL| Reached  24% of maximal function calls                     6.5643331772
 POWELL| Reached  26% of maximal function calls                     6.5643331772
 POWELL| Reached  28% of maximal function calls                     6.5643331772
 POWELL| Reached  30% of maximal function calls                     6.5643331772
 POWELL| Reached  32% of maximal function calls                     6.5643331772
 POWELL| Reached  34% of maximal function calls                     6.5643331772
 POWELL| Reached  36% of maximal function calls                     6.5643331772
 POWELL| Reached  38% of maximal function calls                     6.5643331772
 POWELL| Reached  40% of maximal function calls                     6.5643331772
 POWELL| Reached  42% of maximal function calls                     6.5643331772
 POWELL| Reached  44% of maximal function calls                     6.5643331772
 POWELL| Reached  46% of maximal function calls                     6.5643331772
 POWELL| Reached  48% of maximal function calls                     6.5643331772
 POWELL| Reached  50% of maximal function calls                     6.5643331772
 POWELL| Reached  52% of maximal function calls                     6.5643331772
 POWELL| Reached  54% of maximal function calls                     6.5643331772
 POWELL| Reached  56% of maximal function calls                     6.5643331772
 POWELL| Reached  57% of maximal function calls                     6.5625599806
 POWELL| Reached  60% of maximal function calls                     6.5625599806
 POWELL| Reached  62% of maximal function calls                     6.5625599806
 POWELL| Reached  64% of maximal function calls                     6.5625599806
 POWELL| Reached  66% of maximal function calls                     6.5625599806
 POWELL| Reached  68% of maximal function calls                     6.5624419232
 POWELL| Reached  70% of maximal function calls                     6.5624208348
 POWELL| Reached  72% of maximal function calls                     6.5621207034
 POWELL| Reached  74% of maximal function calls                     6.5621207034
 POWELL| Reached  76% of maximal function calls                     6.5621207034
 POWELL| Reached  78% of maximal function calls                     6.5621185442
 POWELL| Reached  80% of maximal function calls                     6.5621185442
 POWELL| Reached  82% of maximal function calls                     6.5621185442
 POWELL| Reached  84% of maximal function calls                     6.5621030439
 POWELL| Reached  86% of maximal function calls                     6.5621030439
 POWELL| Reached  88% of maximal function calls                     6.5621003453
 POWELL| Reached  90% of maximal function calls                     6.5620996230
 POWELL| Reached  92% of maximal function calls                     6.5620996230
 POWELL| Reached  94% of maximal function calls                     6.5620597805
 POWELL| Reached  96% of maximal function calls                     6.5620334205
 POWELL| Reached  98% of maximal function calls                     6.5619894893
 POWELL| Reached 100% of maximal function calls                     6.5619894893
 POWELL| Reached 100% of maximal function calls                     6.5619876313
 POWELL| Exceeding maximum number of steps
 POWELL| Reached 100% of maximal function calls                     6.5619876313
 POWELL| RMS average of variables                                   0.0000082573
 POWELL| Number of function evaluations                                       50
 POWELL| Final value of function                                    6.5619876313

 POWELL| Final errors of target values

 Reference configuration          1               Method number                1
    L    N    Occupation      Eigenvalue [eV]           dE [eV]          dCharge 
    0    1          2.00      -129.1310970617 SC  -0.013555[ 8]     0.000002[ X]
    0    2          2.00        -5.9718696959 VA   0.002221[65]     0.000494[ 0]
    0    3          0.00         0.8874066215 U1  -0.001112[ X]     0.000186[ X]
    0    4          0.00         6.6063920125 U2  -0.004998[ X]     0.000566[ 0]
    1    1          6.00       -83.3238192955 SC   0.005452[ 0]     0.000002[ X]
    1    2          0.00        -1.0479092671 U1   0.028929[24]    -0.004303[ 0]
    1    3          0.00         2.5836996019 U2   0.022890[ X]    -0.000751[ 0]
    2    1         10.00       -10.1374301101 VA   0.000736[ 3]     0.000055[ X]
    2    2          0.00         2.1275599835 U1   0.001513[ X]    -0.000149[ X]
    2    3          0.00         6.4524729388 U2   0.008969[ X]    -0.001573[ 0]
    3    1          0.00         4.2946507875 U1   0.000256[ X]    -0.000005[ X]
    s-states N=    1                   Wavefunction at r=0:         0.092465[ 0]
    s-states N=    2                   Wavefunction at r=0:        -0.354675[ 0]
    s-states N=    3                   Wavefunction at r=0:         0.169315[ 0]
    s-states N=    4                   Wavefunction at r=0:        -0.262572[ 0]

 Number of target values reached:                                      12 of  19



                             NORMAL TERMINATION OF     
                                                       
                           ****  ******  ****   ****   
                          **  ** ****** **  ** ******  
                          ******   **   **  ** **  **  
                          **  **   **    ****  **  **  


 -------------------------------------------------------------------------------
 -                                                                             -
 -                                DBCSR STATISTICS                             -
 -                                                                             -
 -------------------------------------------------------------------------------
 COUNTER                                    TOTAL       BLAS       SMM       ACC
 flops inhomo. stacks                           0       0.0%      0.0%      0.0%
 flops total                         0.000000E+00       0.0%      0.0%      0.0%
 flops max/rank                      0.000000E+00       0.0%      0.0%      0.0%
 matmuls inhomo. stacks                         0       0.0%      0.0%      0.0%
 matmuls total                                  0       0.0%      0.0%      0.0%
 number of processed stacks                     0       0.0%      0.0%      0.0%
 average stack size                                     0.0       0.0       0.0
 marketing flops                     0.000000E+00
 -------------------------------------------------------------------------------

 MEMORY| Estimated peak process memory [MiB]                                  47

 -------------------------------------------------------------------------------
 -                                                                             -
 -                           R E F E R E N C E S                               -
 -                                                                             -
 -------------------------------------------------------------------------------
 
 CP2K version 7.0 (Development Version), the CP2K developers group (2018).
 CP2K is freely available from https://www.cp2k.org/ .

 Schuett, Ole; Messmer, Peter; Hutter, Juerg; VandeVondele, Joost. 
 Electronic Structure Calculations on Graphics Processing Units, John Wiley & Sons, Ltd, 173-190 (2016). 
 GPU-Accelerated Sparse Matrix-Matrix Multiplication for Linear Scaling Density Functional Theory.
 http://dx.doi.org/10.1002/9781118670712.ch8


 Borstnik, U; VandeVondele, J; Weber, V; Hutter, J. 
 PARALLEL COMPUTING, 40 (5-6), 47-58 (2014). 
 Sparse matrix multiplication: The distributed block-compressed sparse
 row library.
 http://dx.doi.org/10.1016/j.parco.2014.03.012


 Hutter, J; Iannuzzi, M; Schiffmann, F; VandeVondele, J. 
 WILEY INTERDISCIPLINARY REVIEWS-COMPUTATIONAL MOLECULAR SCIENCE, 4 (1), 15-25 (2014). 
 CP2K: atomistic simulations of condensed matter systems.
 http://dx.doi.org/10.1002/wcms.1159


 Frigo, M; Johnson, SG. 
 PROCEEDINGS OF THE IEEE, 93 (2), 216-231 (2005). 
 The design and implementation of FFTW3.
 http://dx.doi.org/10.1109/JPROC.2004.840301


 Perdew, JP; Burke, K; Ernzerhof, M. 
 PHYSICAL REVIEW LETTERS, 77 (18), 3865-3868 (1996). 
 Generalized gradient approximation made simple.
 http://dx.doi.org/10.1103/PhysRevLett.77.3865


 -------------------------------------------------------------------------------
 -                                                                             -
 -                                T I M I N G                                  -
 -                                                                             -
 -------------------------------------------------------------------------------
 SUBROUTINE                       CALLS  ASD         SELF TIME        TOTAL TIME
                                MAXIMUM       AVERAGE  MAXIMUM  AVERAGE  MAXIMUM
 CP2K                                 1  1.0    0.002    0.002 1057.898 1057.898
 atom_code                            1  2.0    0.000    0.000 1057.895 1057.895
 atom_pseudo_opt                      1  3.0    8.545    8.545 1057.895 1057.895
 calculate_atom                    5517  4.0    0.016    0.016 1044.075 1044.075
 calculate_atom_restricted         5517  5.0  362.312  362.312 1044.058 1044.058
 calculate_atom_vxc_lda          213631  6.0  637.887  637.887  681.747  681.747
 xc_functional_eval              213631  7.0    0.482    0.482   43.649   43.649
 pbe_lda_eval                    213631  8.0   43.167   43.167   43.167   43.167
 -------------------------------------------------------------------------------

 The number of warnings for this run is : 0
 
 -------------------------------------------------------------------------------
  **** **** ******  **  PROGRAM ENDED AT                 2018-06-24 21:51:04.502
 ***** ** ***  *** **   PROGRAM RAN ON                                    tcpc01
 **    ****   ******    PROGRAM RAN BY                                    hutter
 ***** **    ** ** **   PROGRAM PROCESS ID                                  3339
  **** **  *******  **  PROGRAM STOPPED IN /data/hutter/pseudo/UZH2018/PBE/Zn/q2
                                           0
