
  **** **** ******  **  PROGRAM STARTED AT               2018-06-24 13:51:24.893
 ***** ** ***  *** **   PROGRAM STARTED ON                                tcpc01
 **    ****   ******    PROGRAM STARTED BY                                hutter
 ***** **    ** ** **   PROGRAM PROCESS ID                                 31180
  **** **  *******  **  PROGRAM STARTED IN /data/hutter/pseudo/UZH2018/PBE/Br/q2
                                           5

 CP2K| version string:                    CP2K version 7.0 (Development Version)
 CP2K| source code revision number:                                    svn:18485
 CP2K| cp2kflags: libint fftw3 libxc libderiv_max_am1=5 libint_max_am=6 spglib  
 CP2K| is freely available from                            https://www.cp2k.org/
 CP2K| Program compiled at                         Wed Jun 20 10:41:43 CEST 2018
 CP2K| Program compiled on                                                tcpc01
 CP2K| Program compiled for                                                local
 CP2K| Data directory path                        /data/hutter/CURRENT/cp2k/data
 CP2K| Input file name                                                    Br.inp

 GLOBAL| Method name                                                        ATOM
 GLOBAL| Project name                                                    PROJECT
 GLOBAL| Preferred FFT library                                             FFTW3
 GLOBAL| Preferred diagonalization lib.                                       SL
 GLOBAL| Run type                                                   ENERGY_FORCE
 GLOBAL| All-to-all communication in single precision                          F
 GLOBAL| FFTs using library dependent lengths                                  F
 GLOBAL| Global print level                                               MEDIUM
 GLOBAL| Total number of message passing processes                             1
 GLOBAL| Number of threads for this process                                    1
 GLOBAL| This output is from process                                           0
 GLOBAL| CPU model name :  Intel(R) Xeon(R) CPU           X5570  @ 2.93GHz

 MEMORY| system memory details [Kb]
 MEMORY|                        rank 0           min           max       average
 MEMORY| MemTotal             37009584      37009584      37009584      37009584
 MEMORY| MemFree              32245316      32245316      32245316      32245316
 MEMORY| Buffers                286248        286248        286248        286248
 MEMORY| Cached                2037912       2037912       2037912       2037912
 MEMORY| Slab                   271564        271564        271564        271564
 MEMORY| SReclaimable           203400        203400        203400        203400
 MEMORY| MemLikelyFree        34772876      34772876      34772876      34772876


 *** Fundamental physical constants (SI units) ***

 *** Literature: B. J. Mohr and B. N. Taylor,
 ***             CODATA recommended values of the fundamental physical
 ***             constants: 2006, Web Version 5.1
 ***             http://physics.nist.gov/constants

 Speed of light in vacuum [m/s]                             2.99792458000000E+08
 Magnetic constant or permeability of vacuum [N/A**2]       1.25663706143592E-06
 Electric constant or permittivity of vacuum [F/m]          8.85418781762039E-12
 Planck constant (h) [J*s]                                  6.62606896000000E-34
 Planck constant (h-bar) [J*s]                              1.05457162825177E-34
 Elementary charge [C]                                      1.60217648700000E-19
 Electron mass [kg]                                         9.10938215000000E-31
 Electron g factor [ ]                                     -2.00231930436220E+00
 Proton mass [kg]                                           1.67262163700000E-27
 Fine-structure constant                                    7.29735253760000E-03
 Rydberg constant [1/m]                                     1.09737315685270E+07
 Avogadro constant [1/mol]                                  6.02214179000000E+23
 Boltzmann constant [J/K]                                   1.38065040000000E-23
 Atomic mass unit [kg]                                      1.66053878200000E-27
 Bohr radius [m]                                            5.29177208590000E-11

 *** Conversion factors ***

 [u] -> [a.u.]                                              1.82288848426455E+03
 [Angstrom] -> [Bohr] = [a.u.]                              1.88972613288564E+00
 [a.u.] = [Bohr] -> [Angstrom]                              5.29177208590000E-01
 [a.u.] -> [s]                                              2.41888432650478E-17
 [a.u.] -> [fs]                                             2.41888432650478E-02
 [a.u.] -> [J]                                              4.35974393937059E-18
 [a.u.] -> [N]                                              8.23872205491840E-08
 [a.u.] -> [K]                                              3.15774647902944E+05
 [a.u.] -> [kJ/mol]                                         2.62549961709828E+03
 [a.u.] -> [kcal/mol]                                       6.27509468713739E+02
 [a.u.] -> [Pa]                                             2.94210107994716E+13
 [a.u.] -> [bar]                                            2.94210107994716E+08
 [a.u.] -> [atm]                                            2.90362800883016E+08
 [a.u.] -> [eV]                                             2.72113838565563E+01
 [a.u.] -> [Hz]                                             6.57968392072181E+15
 [a.u.] -> [1/cm] (wave numbers)                            2.19474631370540E+05
 [a.u./Bohr**2] -> [1/cm]                                   5.14048714338585E+03
 
 DBCSR| Multiplication driver                                               BLAS
 DBCSR| Multrec recursion limit                                              512
 DBCSR| Multiplication stack size                                           1000
 DBCSR| Maximum elements for images                                    UNLIMITED
 DBCSR| Multiplicative factor virtual images                                   1
 DBCSR| Multiplication size stacks                                             3



                           ****  ******  ****   ****   
                          **  ** ****** **  ** ******  
                          ******   **   **  ** **  **  
                          **  **   **    ****  **  **  
                                                       
                             University of Zurich      
                                 2009 - 2015           
                                                       
                                 Version 0.0           
                                                                   


 Atomic Energy Calculation             Bromine [Br]          Atomic number:   35


 *******************************************************************************
 ************************** Calculate Reference States *************************
 *******************************************************************************

 METHOD    | Restricted Kohn-Sham Calculation
 METHOD    | Relativistic Calculation using Douglas-Kroll 3rd order
 FUNCTIONAL| ROUTINE=NEW
 FUNCTIONAL| PBE:
 FUNCTIONAL| J.P.Perdew, K.Burke, M.Ernzerhof, Phys. Rev. Letter, vol. 77, n 18,
 FUNCTIONAL|  pp. 3865-3868, (1996){spin unpolarized}                           

 Electronic structure
    Total number of core electrons                                          0.00
    Total number of valence electrons                                      35.00
    Total number of electrons                                              35.00
    Multiplicity                                                   not specified
    S      2.00  2.00  2.00  2.00
    P      6.00  6.00  5.00
    D     10.00


 *******************************************************************************
                  Iteration          Convergence                     Energy [au]
 *******************************************************************************
                          1         33.4890                   -2493.602693031699
                          2         20.4742                   -2373.847757125530
                          3         16.5840                   -2559.421189551951
                          4         3.13851                   -2602.000578816405
                          5        0.323813                   -2605.800966341189
                          6        0.138813                   -2605.907654236355
                          7        0.729619E-02               -2605.933129444106
                          8        0.751497E-03               -2605.933190182094
                          9        0.164576E-03               -2605.933190297109
                         10        0.193964E-05               -2605.933190327718
                         11        0.132577E-06               -2605.933190327734
                         12        0.557210E-07               -2605.933190327727

 Energy components [Hartree]           Total Energy ::        -2605.933190327727
                                        Band Energy ::        -1524.760891808627
                                     Kinetic Energy ::         2798.183651281528
                                   Potential Energy ::        -5404.116841609255
                                      Virial (-V/T) ::            1.931294552141
                                        Core Energy ::        -3622.427130701119
                                          XC Energy ::          -92.549771469750
                                     Coulomb Energy ::         1109.043711843141
                                        Confinement ::            0.000000006503

 Orbital energies  State     L     Occupation   Energy[a.u.]          Energy[eV]

                       1     0          2.000    -488.842938       -13302.092828
                       2     0          2.000     -63.621464        -1731.228068
                       3     0          2.000      -8.740589         -237.843528
                       4     0          2.000      -0.739390          -20.119834
                       5     0          0.000      -0.008472           -0.230536
                       6     0          0.000       0.158526            4.313712

                       1     1          6.000     -56.116525        -1527.008314
                       2     1          6.000      -6.370446         -173.348642
                       3     1          5.000      -0.288746           -7.857186
                       4     1          0.000       0.045435            1.236355
                       5     1          0.000       0.223419            6.079540

                       1     2         10.000      -2.450657          -66.685774
                       2     2          0.000       0.075140            2.044665
                       3     2          0.000       0.201283            5.477199

                       1     3          0.000       0.166178            4.521929


 Total Electron Density at R=0:                                     79138.753862

 *******************************************************************************
 ********************* Optimize Pseudopotential Parameters *********************
 *******************************************************************************

 POWELL| Start optimization procedure

 POWELL| Total number of parameters in optimization                           13

 POWELL| Initial errors of target values

 Reference configuration          1               Method number                1
    L    N    Occupation      Eigenvalue [eV]           dE [eV]          dCharge 
    0    1          2.00      -238.0233273219 SC  -0.179800[19]    -0.000001[ X]
    0    2          2.00       -20.1081768181 VA   0.011657[20]     0.012470[ 0]
    0    3          0.00        -0.3050449331 U1  -0.074509[ 2]     0.018861[ 0]
    0    4          0.00         4.1583280412 U2  -0.155384[ 0]     0.013503[ 0]
    1    1          6.00      -173.1553908688 SC   0.193251[23]     0.000001[ X]
    1    2          5.00        -7.8513911507 VA   0.005795[ 5]     0.006015[ 0]
    1    3          0.00         1.2350861279 U1  -0.001269[ X]    -0.000014[ X]
    1    4          0.00         6.0652563118 U2  -0.014284[ X]     0.001410[ 0]
    2    1         10.00       -66.4625772592 SC   0.223196[30]    -0.000178[ X]
    2    2          0.00         2.1104000188 U1   0.065735[ 1]    -0.010133[ 0]
    2    3          0.00         5.7305717641 U2   0.253373[ 0]    -0.023418[ 0]
    3    1          0.00         4.5285769349 U1   0.006648[ 0]    -0.000021[ X]

 Number of target values reached:                                       7 of  21

 POWELL| Start optimization   1 of total  50               rhobeg =   0.00080000
 POWELL| Inital value of function                                 711.6373767512
 POWELL| Reached   6% of maximal function calls                   711.6373767512
 POWELL| Reached   8% of maximal function calls                   711.6373767512
 POWELL| Reached  10% of maximal function calls                   711.6373767512
 POWELL| Reached  12% of maximal function calls                   711.6373767512
 POWELL| Reached  14% of maximal function calls                   634.8707708621
 POWELL| Reached  16% of maximal function calls                   634.8707708621
 POWELL| Reached  18% of maximal function calls                   634.8707708621
 POWELL| Reached  20% of maximal function calls                   634.8707708621
 POWELL| Reached  22% of maximal function calls                   634.8707708621
 POWELL| Reached  24% of maximal function calls                   634.8707708621
 POWELL| Reached  26% of maximal function calls                   634.8707708621
 POWELL| Reached  28% of maximal function calls                   634.8707708621
 POWELL| Reached  30% of maximal function calls                   634.8707708621
 POWELL| Reached  32% of maximal function calls                   505.9176525702
 POWELL| Reached  34% of maximal function calls                   505.9176525702
 POWELL| Reached  36% of maximal function calls                   505.9176525702
 POWELL| Reached  38% of maximal function calls                   505.9176525702
 POWELL| Reached  40% of maximal function calls                   505.9176525702
 POWELL| Reached  42% of maximal function calls                   505.9176525702
 POWELL| Reached  44% of maximal function calls                   505.9176525702
 POWELL| Reached  46% of maximal function calls                   505.9176525702
 POWELL| Reached  48% of maximal function calls                   505.9176525702
 POWELL| Reached  50% of maximal function calls                   505.9176525702
 POWELL| Reached  52% of maximal function calls                   505.9176525702
 POWELL| Reached  54% of maximal function calls                   505.9176525702
 POWELL| Reached  56% of maximal function calls                   505.9176525702
 POWELL| Reached  57% of maximal function calls                   503.5240262210
 POWELL| Reached  60% of maximal function calls                   503.5240262210
 POWELL| Reached  62% of maximal function calls                   503.5240262210
 POWELL| Reached  64% of maximal function calls                   502.0339809241
 POWELL| Reached  66% of maximal function calls                   500.8477991800
 POWELL| Reached  68% of maximal function calls                   500.1979445202
 POWELL| Reached  70% of maximal function calls                   500.1510468674
 POWELL| Reached  72% of maximal function calls                   499.8848834208
 POWELL| Reached  74% of maximal function calls                   499.5740878026
 POWELL| Reached  76% of maximal function calls                   499.5451039131
 POWELL| Reached  78% of maximal function calls                   499.5451039131
 POWELL| Reached  80% of maximal function calls                   499.5451039131
 POWELL| Reached  82% of maximal function calls                   499.5451039131
 POWELL| Reached  84% of maximal function calls                   499.5451039131
 POWELL| Reached  86% of maximal function calls                   499.5426190893
 POWELL| Reached  88% of maximal function calls                   499.5426190893
 POWELL| Reached  90% of maximal function calls                   499.5088321934
 POWELL| Reached  92% of maximal function calls                   499.5088321934
 POWELL| Reached  94% of maximal function calls                   499.5086969603
 POWELL| Reached  96% of maximal function calls                   499.5086969603
 POWELL| Reached  98% of maximal function calls                   499.4767160177
 POWELL| Reached 100% of maximal function calls                   499.4767160177
 POWELL| Reached 100% of maximal function calls                   499.4767160177
 POWELL| Exceeding maximum number of steps
 POWELL| Reached 100% of maximal function calls                   499.4767160177
 POWELL| RMS average of variables                                   0.0002460008
 POWELL| Start optimization   2 of total  50               rhobeg =   0.00078400
 POWELL| Inital value of function                                 499.4767160177
 POWELL| Reached   6% of maximal function calls                   499.4767160177
 POWELL| Reached   8% of maximal function calls                   499.4767160177
 POWELL| Reached  10% of maximal function calls                   499.4767160177
 POWELL| Reached  12% of maximal function calls                   415.6625862807
 POWELL| Reached  14% of maximal function calls                   415.6625862807
 POWELL| Reached  16% of maximal function calls                   381.7161694720
 POWELL| Reached  18% of maximal function calls                   381.7161694720
 POWELL| Reached  20% of maximal function calls                   381.7161694720
 POWELL| Reached  22% of maximal function calls                   381.7161694720
 POWELL| Reached  24% of maximal function calls                   381.7161694720
 POWELL| Reached  26% of maximal function calls                   381.7161694720
 POWELL| Reached  28% of maximal function calls                   381.7161694720
 POWELL| Reached  30% of maximal function calls                   381.7161694720
 POWELL| Reached  32% of maximal function calls                   381.7161694720
 POWELL| Reached  34% of maximal function calls                   381.7161694720
 POWELL| Reached  36% of maximal function calls                   381.7161694720
 POWELL| Reached  38% of maximal function calls                   381.7161694720
 POWELL| Reached  40% of maximal function calls                   381.7161694720
 POWELL| Reached  42% of maximal function calls                   381.7161694720
 POWELL| Reached  44% of maximal function calls                   381.7161694720
 POWELL| Reached  46% of maximal function calls                   381.7161694720
 POWELL| Reached  48% of maximal function calls                   381.7161694720
 POWELL| Reached  50% of maximal function calls                   381.7161694720
 POWELL| Reached  52% of maximal function calls                   381.7161694720
 POWELL| Reached  54% of maximal function calls                   381.7161694720
 POWELL| Reached  56% of maximal function calls                   381.7161694720
 POWELL| Reached  57% of maximal function calls                   381.7161694720
 POWELL| Reached  60% of maximal function calls                   381.7161694720
 POWELL| Reached  62% of maximal function calls                   381.7161694720
 POWELL| Reached  64% of maximal function calls                   381.7161694720
 POWELL| Reached  66% of maximal function calls                   381.3624139067
 POWELL| Reached  68% of maximal function calls                   381.3542188253
 POWELL| Reached  70% of maximal function calls                   381.2678937358
 POWELL| Reached  72% of maximal function calls                   381.2265084753
 POWELL| Reached  74% of maximal function calls                   381.2265084753
 POWELL| Reached  76% of maximal function calls                   381.2239473861
 POWELL| Reached  78% of maximal function calls                   381.2238027702
 POWELL| Reached  80% of maximal function calls                   381.2159049846
 POWELL| Reached  82% of maximal function calls                   381.2159049846
 POWELL| Reached  84% of maximal function calls                   381.2138519700
 POWELL| Reached  86% of maximal function calls                   381.2130951030
 POWELL| Reached  88% of maximal function calls                   381.2130951030
 POWELL| Reached  90% of maximal function calls                   381.2130951030
 POWELL| Reached  92% of maximal function calls                   381.2130951030
 POWELL| Reached  94% of maximal function calls                   381.2122473456
 POWELL| Reached  96% of maximal function calls                   381.2122473456
 POWELL| Reached  98% of maximal function calls                   381.2122473456
 POWELL| Reached 100% of maximal function calls                   381.2122473456
 POWELL| Reached 100% of maximal function calls                   381.2116369415
 POWELL| Exceeding maximum number of steps
 POWELL| Reached 100% of maximal function calls                   381.2116369415
 POWELL| RMS average of variables                                   0.0002190780
 POWELL| Start optimization   3 of total  50               rhobeg =   0.00076832
 POWELL| Inital value of function                                 381.2116369415
 POWELL| Reached   6% of maximal function calls                   381.2116369415
 POWELL| Reached   8% of maximal function calls                   381.2116369415
 POWELL| Reached  10% of maximal function calls                   381.2116369415
 POWELL| Reached  12% of maximal function calls                   381.2116369415
 POWELL| Reached  14% of maximal function calls                   312.0088591199
 POWELL| Reached  16% of maximal function calls                   312.0088591199
 POWELL| Reached  18% of maximal function calls                   312.0088591199
 POWELL| Reached  20% of maximal function calls                   312.0088591199
 POWELL| Reached  22% of maximal function calls                   312.0088591199
 POWELL| Reached  24% of maximal function calls                   312.0088591199
 POWELL| Reached  26% of maximal function calls                   312.0088591199
 POWELL| Reached  28% of maximal function calls                   312.0088591199
 POWELL| Reached  30% of maximal function calls                   312.0088591199
 POWELL| Reached  32% of maximal function calls                   312.0088591199
 POWELL| Reached  34% of maximal function calls                   312.0088591199
 POWELL| Reached  36% of maximal function calls                   312.0088591199
 POWELL| Reached  38% of maximal function calls                   312.0088591199
 POWELL| Reached  40% of maximal function calls                   312.0088591199
 POWELL| Reached  42% of maximal function calls                   312.0088591199
 POWELL| Reached  44% of maximal function calls                   312.0088591199
 POWELL| Reached  46% of maximal function calls                   312.0088591199
 POWELL| Reached  48% of maximal function calls                   312.0088591199
 POWELL| Reached  50% of maximal function calls                   312.0088591199
 POWELL| Reached  52% of maximal function calls                   312.0088591199
 POWELL| Reached  54% of maximal function calls                   312.0088591199
 POWELL| Reached  56% of maximal function calls                   312.0088591199
 POWELL| Reached  57% of maximal function calls                   306.7784919138
 POWELL| Reached  60% of maximal function calls                   306.7784919138
 POWELL| Reached  62% of maximal function calls                   306.7784919138
 POWELL| Reached  64% of maximal function calls                   306.7739574489
 POWELL| Reached  66% of maximal function calls                   306.4211718936
 POWELL| Reached  68% of maximal function calls                   306.2111147749
 POWELL| Reached  70% of maximal function calls                   306.1571300125
 POWELL| Reached  72% of maximal function calls                   306.1571300125
 POWELL| Reached  74% of maximal function calls                   306.1443377088
 POWELL| Reached  76% of maximal function calls                   306.1427416026
 POWELL| Reached  78% of maximal function calls                   306.1427416026
 POWELL| Reached  80% of maximal function calls                   306.1305818730
 POWELL| Reached  82% of maximal function calls                   306.1303968751
 POWELL| Reached  84% of maximal function calls                   306.1303968751
 POWELL| Reached  86% of maximal function calls                   306.1303968751
 POWELL| Reached  88% of maximal function calls                   306.1303968751
 POWELL| Reached  90% of maximal function calls                   306.1302581990
 POWELL| Reached  92% of maximal function calls                   306.1302581990
 POWELL| Reached  94% of maximal function calls                   306.1275413511
 POWELL| Reached  96% of maximal function calls                   306.1275413511
 POWELL| Reached  98% of maximal function calls                   306.1233766183
 POWELL| Reached 100% of maximal function calls                   306.1233766183
 POWELL| Reached 100% of maximal function calls                   306.1211508983
 POWELL| Exceeding maximum number of steps
 POWELL| Reached 100% of maximal function calls                   306.1211508983
 POWELL| RMS average of variables                                   0.0002361424
 POWELL| Start optimization   4 of total  50               rhobeg =   0.00075295
 POWELL| Inital value of function                                 306.1211508983
 POWELL| Reached   6% of maximal function calls                   306.1211508983
 POWELL| Reached   8% of maximal function calls                   306.1211508983
 POWELL| Reached  10% of maximal function calls                   306.1100325593
 POWELL| Reached  12% of maximal function calls                   306.1100325593
 POWELL| Reached  14% of maximal function calls                   271.4192596653
 POWELL| Reached  16% of maximal function calls                   271.4192596653
 POWELL| Reached  18% of maximal function calls                   271.4192596653
 POWELL| Reached  20% of maximal function calls                   271.4192596653
 POWELL| Reached  22% of maximal function calls                   271.4192596653
 POWELL| Reached  24% of maximal function calls                   271.4192596653
 POWELL| Reached  26% of maximal function calls                   271.4192596653
 POWELL| Reached  28% of maximal function calls                   271.4192596653
 POWELL| Reached  30% of maximal function calls                   271.4192596653
 POWELL| Reached  32% of maximal function calls                   271.4192596653
 POWELL| Reached  34% of maximal function calls                   271.4192596653
 POWELL| Reached  36% of maximal function calls                   271.4192596653
 POWELL| Reached  38% of maximal function calls                   271.4192596653
 POWELL| Reached  40% of maximal function calls                   271.4192596653
 POWELL| Reached  42% of maximal function calls                   271.4192596653
 POWELL| Reached  44% of maximal function calls                   271.4192596653
 POWELL| Reached  46% of maximal function calls                   271.4192596653
 POWELL| Reached  48% of maximal function calls                   271.4192596653
 POWELL| Reached  50% of maximal function calls                   271.4192596653
 POWELL| Reached  52% of maximal function calls                   271.4192596653
 POWELL| Reached  54% of maximal function calls                   271.4192596653
 POWELL| Reached  56% of maximal function calls                   271.4192596653
 POWELL| Reached  57% of maximal function calls                   251.3147304995
 POWELL| Reached  60% of maximal function calls                   247.1045694460
 POWELL| Reached  62% of maximal function calls                   237.5228672341
 POWELL| Reached  64% of maximal function calls                   237.5228672341
 POWELL| Reached  66% of maximal function calls                   237.5228672341
 POWELL| Reached  68% of maximal function calls                   230.3112648818
 POWELL| Reached  70% of maximal function calls                   220.5440615227
 POWELL| Reached  72% of maximal function calls                   220.5440615227
 POWELL| Reached  74% of maximal function calls                   220.5440615227
 POWELL| Reached  76% of maximal function calls                   214.1713996336
 POWELL| Reached  78% of maximal function calls                   212.6947286996
 POWELL| Reached  80% of maximal function calls                   204.8408215653
 POWELL| Reached  82% of maximal function calls                   203.3162783098
 POWELL| Reached  84% of maximal function calls                   201.7162712566
 POWELL| Reached  86% of maximal function calls                   201.7014607366
 POWELL| Reached  88% of maximal function calls                   201.4579078914
 POWELL| Reached  90% of maximal function calls                   199.6966307694
 POWELL| Reached  92% of maximal function calls                   197.4950752551
 POWELL| Reached  94% of maximal function calls                   194.9713440350
 POWELL| Reached  96% of maximal function calls                   191.2552653912
 POWELL| Reached  98% of maximal function calls                   191.2552653912
 POWELL| Reached 100% of maximal function calls                   190.5776577196
 POWELL| Reached 100% of maximal function calls                   190.5776577196
 POWELL| Exceeding maximum number of steps
 POWELL| Reached 100% of maximal function calls                   190.5776577196
 POWELL| RMS average of variables                                   0.0005756693
 POWELL| Start optimization   5 of total  50               rhobeg =   0.00073789
 POWELL| Inital value of function                                 190.5776577196
 POWELL| Reached   6% of maximal function calls                   190.5776577196
 POWELL| Reached   8% of maximal function calls                   190.5776577196
 POWELL| Reached  10% of maximal function calls                   184.1204823241
 POWELL| Reached  12% of maximal function calls                   184.1204823241
 POWELL| Reached  14% of maximal function calls                   184.1204823241
 POWELL| Reached  16% of maximal function calls                   184.1204823241
 POWELL| Reached  18% of maximal function calls                   184.1204823241
 POWELL| Reached  20% of maximal function calls                   184.1204823241
 POWELL| Reached  22% of maximal function calls                   184.1204823241
 POWELL| Reached  24% of maximal function calls                   184.1204823241
 POWELL| Reached  26% of maximal function calls                   184.1204823241
 POWELL| Reached  28% of maximal function calls                   184.1204823241
 POWELL| Reached  30% of maximal function calls                   184.1204823241
 POWELL| Reached  32% of maximal function calls                   184.1204823241
 POWELL| Reached  34% of maximal function calls                   184.1204823241
 POWELL| Reached  36% of maximal function calls                   184.1204823241
 POWELL| Reached  38% of maximal function calls                   184.1204823241
 POWELL| Reached  40% of maximal function calls                   184.1204823241
 POWELL| Reached  42% of maximal function calls                   184.1204823241
 POWELL| Reached  44% of maximal function calls                   184.1204823241
 POWELL| Reached  46% of maximal function calls                   184.1204823241
 POWELL| Reached  48% of maximal function calls                   184.1204823241
 POWELL| Reached  50% of maximal function calls                   184.1204823241
 POWELL| Reached  52% of maximal function calls                   184.1204823241
 POWELL| Reached  54% of maximal function calls                   184.1204823241
 POWELL| Reached  56% of maximal function calls                   184.1204823241
 POWELL| Reached  57% of maximal function calls                   183.5163438853
 POWELL| Reached  60% of maximal function calls                   183.5163438853
 POWELL| Reached  62% of maximal function calls                   183.5163438853
 POWELL| Reached  64% of maximal function calls                   183.5144731545
 POWELL| Reached  66% of maximal function calls                   183.4796895050
 POWELL| Reached  68% of maximal function calls                   183.4796895050
 POWELL| Reached  70% of maximal function calls                   183.4796895050
 POWELL| Reached  72% of maximal function calls                   183.4796895050
 POWELL| Reached  74% of maximal function calls                   183.4796895050
 POWELL| Reached  76% of maximal function calls                   183.4796895050
 POWELL| Reached  78% of maximal function calls                   183.4732435105
 POWELL| Reached  80% of maximal function calls                   183.4732435105
 POWELL| Reached  82% of maximal function calls                   183.4732435105
 POWELL| Reached  84% of maximal function calls                   183.4732435105
 POWELL| Reached  86% of maximal function calls                   183.4732435105
 POWELL| Reached  88% of maximal function calls                   183.4732435105
 POWELL| Reached  90% of maximal function calls                   183.4670363088
 POWELL| Reached  92% of maximal function calls                   183.4541331583
 POWELL| Reached  94% of maximal function calls                   183.4541331583
 POWELL| Reached  96% of maximal function calls                   183.4541331583
 POWELL| Reached  98% of maximal function calls                   183.4536997318
 POWELL| Reached 100% of maximal function calls                   183.4536997318
 POWELL| Reached 100% of maximal function calls                   183.4482734126
 POWELL| Exceeding maximum number of steps
 POWELL| Reached 100% of maximal function calls                   183.4482734126
 POWELL| RMS average of variables                                   0.0002268201
 POWELL| Start optimization   6 of total  50               rhobeg =   0.00072314
 POWELL| Inital value of function                                 183.4482734126
 POWELL| Reached   6% of maximal function calls                   183.4482734126
 POWELL| Reached   8% of maximal function calls                   183.4482734126
 POWELL| Reached  10% of maximal function calls                   177.9701881063
 POWELL| Reached  12% of maximal function calls                   177.9701881063
 POWELL| Reached  14% of maximal function calls                   177.9701881063
 POWELL| Reached  16% of maximal function calls                   177.9701881063
 POWELL| Reached  18% of maximal function calls                   177.9701881063
 POWELL| Reached  20% of maximal function calls                   177.9701881063
 POWELL| Reached  22% of maximal function calls                   177.9701881063
 POWELL| Reached  24% of maximal function calls                   177.9701881063
 POWELL| Reached  26% of maximal function calls                   177.9701881063
 POWELL| Reached  28% of maximal function calls                   177.9701881063
 POWELL| Reached  30% of maximal function calls                   177.9701881063
 POWELL| Reached  32% of maximal function calls                   177.9701881063
 POWELL| Reached  34% of maximal function calls                   177.9701881063
 POWELL| Reached  36% of maximal function calls                   177.9701881063
 POWELL| Reached  38% of maximal function calls                   177.9701881063
 POWELL| Reached  40% of maximal function calls                   177.9701881063
 POWELL| Reached  42% of maximal function calls                   177.9701881063
 POWELL| Reached  44% of maximal function calls                   177.6865398357
 POWELL| Reached  46% of maximal function calls                   177.6865398357
 POWELL| Reached  48% of maximal function calls                   177.6865398357
 POWELL| Reached  50% of maximal function calls                   177.6865398357
 POWELL| Reached  52% of maximal function calls                   177.6865398357
 POWELL| Reached  54% of maximal function calls                   177.6865398357
 POWELL| Reached  56% of maximal function calls                   177.6865398357
 POWELL| Reached  57% of maximal function calls                   177.3623205547
 POWELL| Reached  60% of maximal function calls                   177.3623205547
 POWELL| Reached  62% of maximal function calls                   177.3623205547
 POWELL| Reached  64% of maximal function calls                   177.2979735969
 POWELL| Reached  66% of maximal function calls                   177.2306739722
 POWELL| Reached  68% of maximal function calls                   177.0075639504
 POWELL| Reached  70% of maximal function calls                   176.9940608844
 POWELL| Reached  72% of maximal function calls                   176.9940608844
 POWELL| Reached  74% of maximal function calls                   176.9849984763
 POWELL| Reached  76% of maximal function calls                   176.9842556971
 POWELL| Reached  78% of maximal function calls                   176.9837982244
 POWELL| Reached  80% of maximal function calls                   176.9837982244
 POWELL| Reached  82% of maximal function calls                   176.9829343584
 POWELL| Reached  84% of maximal function calls                   176.9829343584
 POWELL| Reached  86% of maximal function calls                   176.9819400918
 POWELL| Reached  88% of maximal function calls                   176.9818893450
 POWELL| Reached  90% of maximal function calls                   176.9815995725
 POWELL| Reached  92% of maximal function calls                   176.9810919409
 POWELL| Reached  94% of maximal function calls                   176.9810919409
 POWELL| Reached  96% of maximal function calls                   176.9810919409
 POWELL| Reached  98% of maximal function calls                   176.9808265589
 POWELL| Reached 100% of maximal function calls                   176.9808265589
 POWELL| Reached 100% of maximal function calls                   176.9801426977
 POWELL| Exceeding maximum number of steps
 POWELL| Reached 100% of maximal function calls                   176.9801426977
 POWELL| RMS average of variables                                   0.0002222378
 POWELL| Start optimization   7 of total  50               rhobeg =   0.00070867
 POWELL| Inital value of function                                 176.9801426977
 POWELL| Reached   6% of maximal function calls                   176.9801426977
 POWELL| Reached   8% of maximal function calls                   176.9801426977
 POWELL| Reached  10% of maximal function calls                   170.9939421215
 POWELL| Reached  12% of maximal function calls                   170.9939421215
 POWELL| Reached  14% of maximal function calls                   170.9939421215
 POWELL| Reached  16% of maximal function calls                   170.9939421215
 POWELL| Reached  18% of maximal function calls                   170.9939421215
 POWELL| Reached  20% of maximal function calls                   170.9939421215
 POWELL| Reached  22% of maximal function calls                   168.8210477340
 POWELL| Reached  24% of maximal function calls                   168.8210477340
 POWELL| Reached  26% of maximal function calls                   168.8210477340
 POWELL| Reached  28% of maximal function calls                   168.8210477340
 POWELL| Reached  30% of maximal function calls                   168.8210477340
 POWELL| Reached  32% of maximal function calls                   168.8210477340
 POWELL| Reached  34% of maximal function calls                   168.8210477340
 POWELL| Reached  36% of maximal function calls                   168.8210477340
 POWELL| Reached  38% of maximal function calls                   168.8210477340
 POWELL| Reached  40% of maximal function calls                   168.8210477340
 POWELL| Reached  42% of maximal function calls                   168.8210477340
 POWELL| Reached  44% of maximal function calls                   168.8210477340
 POWELL| Reached  46% of maximal function calls                   168.8210477340
 POWELL| Reached  48% of maximal function calls                   168.8210477340
 POWELL| Reached  50% of maximal function calls                   168.8210477340
 POWELL| Reached  52% of maximal function calls                   168.8210477340
 POWELL| Reached  54% of maximal function calls                   168.8210477340
 POWELL| Reached  56% of maximal function calls                   168.8210477340
 POWELL| Reached  57% of maximal function calls                   168.2160443610
 POWELL| Reached  60% of maximal function calls                   168.2160443610
 POWELL| Reached  62% of maximal function calls                   168.2160443610
 POWELL| Reached  64% of maximal function calls                   168.1631115430
 POWELL| Reached  66% of maximal function calls                   168.0846211672
 POWELL| Reached  68% of maximal function calls                   168.0846211672
 POWELL| Reached  70% of maximal function calls                   168.0846211672
 POWELL| Reached  72% of maximal function calls                   168.0846211672
 POWELL| Reached  74% of maximal function calls                   168.0846211672
 POWELL| Reached  76% of maximal function calls                   168.0844745381
 POWELL| Reached  78% of maximal function calls                   168.0844745381
 POWELL| Reached  80% of maximal function calls                   168.0844745381
 POWELL| Reached  82% of maximal function calls                   168.0844745381
 POWELL| Reached  84% of maximal function calls                   168.0844240829
 POWELL| Reached  86% of maximal function calls                   168.0832265873
 POWELL| Reached  88% of maximal function calls                   168.0816684356
 POWELL| Reached  90% of maximal function calls                   168.0802563309
 POWELL| Reached  92% of maximal function calls                   168.0802350040
 POWELL| Reached  94% of maximal function calls                   168.0780450879
 POWELL| Reached  96% of maximal function calls                   168.0776910787
 POWELL| Reached  98% of maximal function calls                   168.0776910787
 POWELL| Reached 100% of maximal function calls                   168.0775097779
 POWELL| Reached 100% of maximal function calls                   168.0762314259
 POWELL| Exceeding maximum number of steps
 POWELL| Reached 100% of maximal function calls                   168.0762314259
 POWELL| RMS average of variables                                   0.0002176127
 POWELL| Start optimization   8 of total  50               rhobeg =   0.00069450
 POWELL| Inital value of function                                 168.0762314259
 POWELL| Reached   6% of maximal function calls                   168.0762314259
 POWELL| Reached   8% of maximal function calls                   168.0762314259
 POWELL| Reached  10% of maximal function calls                   163.1839917843
 POWELL| Reached  12% of maximal function calls                   163.1839917843
 POWELL| Reached  14% of maximal function calls                   163.1839917843
 POWELL| Reached  16% of maximal function calls                   163.1839917843
 POWELL| Reached  18% of maximal function calls                   163.1839917843
 POWELL| Reached  20% of maximal function calls                   163.1839917843
 POWELL| Reached  22% of maximal function calls                   163.1839917843
 POWELL| Reached  24% of maximal function calls                   163.1839917843
 POWELL| Reached  26% of maximal function calls                   163.1839917843
 POWELL| Reached  28% of maximal function calls                   163.1839917843
 POWELL| Reached  30% of maximal function calls                   163.1839917843
 POWELL| Reached  32% of maximal function calls                   163.1839917843
 POWELL| Reached  34% of maximal function calls                   163.1839917843
 POWELL| Reached  36% of maximal function calls                   163.1839917843
 POWELL| Reached  38% of maximal function calls                   163.1839917843
 POWELL| Reached  40% of maximal function calls                   163.1839917843
 POWELL| Reached  42% of maximal function calls                   163.1839917843
 POWELL| Reached  44% of maximal function calls                   163.1549825848
 POWELL| Reached  46% of maximal function calls                   163.1549825848
 POWELL| Reached  48% of maximal function calls                   163.1549825848
 POWELL| Reached  50% of maximal function calls                   163.1549825848
 POWELL| Reached  52% of maximal function calls                   163.1549825848
 POWELL| Reached  54% of maximal function calls                   163.1549825848
 POWELL| Reached  56% of maximal function calls                   163.1549825848
 POWELL| Reached  57% of maximal function calls                   162.8952147506
 POWELL| Reached  60% of maximal function calls                   162.8952147506
 POWELL| Reached  62% of maximal function calls                   162.8952147506
 POWELL| Reached  64% of maximal function calls                   162.8375049686
 POWELL| Reached  66% of maximal function calls                   162.7793091213
 POWELL| Reached  68% of maximal function calls                   162.5714970265
 POWELL| Reached  70% of maximal function calls                   162.5592874734
 POWELL| Reached  72% of maximal function calls                   162.5505861179
 POWELL| Reached  74% of maximal function calls                   162.5423705933
 POWELL| Reached  76% of maximal function calls                   162.5423705933
 POWELL| Reached  78% of maximal function calls                   162.5419400402
 POWELL| Reached  80% of maximal function calls                   162.5419400402
 POWELL| Reached  82% of maximal function calls                   162.5411969661
 POWELL| Reached  84% of maximal function calls                   162.5411969661
 POWELL| Reached  86% of maximal function calls                   162.5403123871
 POWELL| Reached  88% of maximal function calls                   162.5403123871
 POWELL| Reached  90% of maximal function calls                   162.5403123871
 POWELL| Reached  92% of maximal function calls                   162.5400048673
 POWELL| Reached  94% of maximal function calls                   162.5400048673
 POWELL| Reached  96% of maximal function calls                   162.5400048673
 POWELL| Reached  98% of maximal function calls                   162.5394170828
 POWELL| Reached 100% of maximal function calls                   162.5366299528
 POWELL| Reached 100% of maximal function calls                   162.5310576515
 POWELL| Exceeding maximum number of steps
 POWELL| Reached 100% of maximal function calls                   162.5310576515
 POWELL| RMS average of variables                                   0.0002135494
 POWELL| Start optimization   9 of total  50               rhobeg =   0.00068061
 POWELL| Inital value of function                                 162.5310576515
 POWELL| Reached   6% of maximal function calls                   162.5310576515
 POWELL| Reached   8% of maximal function calls                   162.5310576515
 POWELL| Reached  10% of maximal function calls                   157.1682562118
 POWELL| Reached  12% of maximal function calls                   157.1682562118
 POWELL| Reached  14% of maximal function calls                   157.1682562118
 POWELL| Reached  16% of maximal function calls                   157.1682562118
 POWELL| Reached  18% of maximal function calls                   157.1682562118
 POWELL| Reached  20% of maximal function calls                   157.1682562118
 POWELL| Reached  22% of maximal function calls                   155.1719732230
 POWELL| Reached  24% of maximal function calls                   155.1719732230
 POWELL| Reached  26% of maximal function calls                   155.1719732230
 POWELL| Reached  28% of maximal function calls                   155.1719732230
 POWELL| Reached  30% of maximal function calls                   155.1719732230
 POWELL| Reached  32% of maximal function calls                   155.1719732230
 POWELL| Reached  34% of maximal function calls                   155.1719732230
 POWELL| Reached  36% of maximal function calls                   155.1719732230
 POWELL| Reached  38% of maximal function calls                   155.1719732230
 POWELL| Reached  40% of maximal function calls                   155.1719732230
 POWELL| Reached  42% of maximal function calls                   155.1719732230
 POWELL| Reached  44% of maximal function calls                   155.1719732230
 POWELL| Reached  46% of maximal function calls                   155.1719732230
 POWELL| Reached  48% of maximal function calls                   155.1719732230
 POWELL| Reached  50% of maximal function calls                   155.1719732230
 POWELL| Reached  52% of maximal function calls                   155.1719732230
 POWELL| Reached  54% of maximal function calls                   155.1719732230
 POWELL| Reached  56% of maximal function calls                   155.1719732230
 POWELL| Reached  57% of maximal function calls                   154.6306123641
 POWELL| Reached  60% of maximal function calls                   154.6306123641
 POWELL| Reached  62% of maximal function calls                   154.6306123641
 POWELL| Reached  64% of maximal function calls                   154.5834872416
 POWELL| Reached  66% of maximal function calls                   154.5134704794
 POWELL| Reached  68% of maximal function calls                   154.5134704794
 POWELL| Reached  70% of maximal function calls                   154.5134704794
 POWELL| Reached  72% of maximal function calls                   154.5134704794
 POWELL| Reached  74% of maximal function calls                   154.5134704794
 POWELL| Reached  76% of maximal function calls                   154.5133268030
 POWELL| Reached  78% of maximal function calls                   154.5133268030
 POWELL| Reached  80% of maximal function calls                   154.5133268030
 POWELL| Reached  82% of maximal function calls                   154.5133268030
 POWELL| Reached  84% of maximal function calls                   154.5127463753
 POWELL| Reached  86% of maximal function calls                   154.5109423085
 POWELL| Reached  88% of maximal function calls                   154.5109423085
 POWELL| Reached  90% of maximal function calls                   154.5087823721
 POWELL| Reached  92% of maximal function calls                   154.5087823721
 POWELL| Reached  94% of maximal function calls                   154.5087823721
 POWELL| Reached  96% of maximal function calls                   154.5087823721
 POWELL| Reached  98% of maximal function calls                   154.5087823721
 POWELL| Reached 100% of maximal function calls                   154.5087823721
 POWELL| Reached 100% of maximal function calls                   154.5078283918
 POWELL| Exceeding maximum number of steps
 POWELL| Reached 100% of maximal function calls                   154.5078283918
 POWELL| RMS average of variables                                   0.0002089739
 POWELL| Start optimization  10 of total  50               rhobeg =   0.00066700
 POWELL| Inital value of function                                 154.5078283918
 POWELL| Reached   6% of maximal function calls                   154.5078283918
 POWELL| Reached   8% of maximal function calls                   154.5078283918
 POWELL| Reached  10% of maximal function calls                   150.1533453720
 POWELL| Reached  12% of maximal function calls                   150.1533453720
 POWELL| Reached  14% of maximal function calls                   150.1533453720
 POWELL| Reached  16% of maximal function calls                   150.1533453720
 POWELL| Reached  18% of maximal function calls                   150.1533453720
 POWELL| Reached  20% of maximal function calls                   150.1533453720
 POWELL| Reached  22% of maximal function calls                   150.1533453720
 POWELL| Reached  24% of maximal function calls                   150.1533453720
 POWELL| Reached  26% of maximal function calls                   150.1533453720
 POWELL| Reached  28% of maximal function calls                   150.1533453720
 POWELL| Reached  30% of maximal function calls                   150.1533453720
 POWELL| Reached  32% of maximal function calls                   150.1533453720
 POWELL| Reached  34% of maximal function calls                   150.1533453720
 POWELL| Reached  36% of maximal function calls                   150.1533453720
 POWELL| Reached  38% of maximal function calls                   150.1533453720
 POWELL| Reached  40% of maximal function calls                   150.1533453720
 POWELL| Reached  42% of maximal function calls                   150.1533453720
 POWELL| Reached  44% of maximal function calls                   150.1533453720
 POWELL| Reached  46% of maximal function calls                   150.1533453720
 POWELL| Reached  48% of maximal function calls                   150.1533453720
 POWELL| Reached  50% of maximal function calls                   150.1533453720
 POWELL| Reached  52% of maximal function calls                   150.1533453720
 POWELL| Reached  54% of maximal function calls                   150.1533453720
 POWELL| Reached  56% of maximal function calls                   150.1533453720
 POWELL| Reached  57% of maximal function calls                   149.7433618486
 POWELL| Reached  60% of maximal function calls                   149.7433618486
 POWELL| Reached  62% of maximal function calls                   149.7433618486
 POWELL| Reached  64% of maximal function calls                   149.7433618486
 POWELL| Reached  66% of maximal function calls                   149.7433618486
 POWELL| Reached  68% of maximal function calls                   149.7433618486
 POWELL| Reached  70% of maximal function calls                   149.7433618486
 POWELL| Reached  72% of maximal function calls                   149.7433618486
 POWELL| Reached  74% of maximal function calls                   149.7433618486
 POWELL| Reached  76% of maximal function calls                   149.7392536994
 POWELL| Reached  78% of maximal function calls                   149.7392536994
 POWELL| Reached  80% of maximal function calls                   149.7392536994
 POWELL| Reached  82% of maximal function calls                   149.7132889088
 POWELL| Reached  84% of maximal function calls                   149.7005786381
 POWELL| Reached  86% of maximal function calls                   149.7005786381
 POWELL| Reached  88% of maximal function calls                   149.6920878499
 POWELL| Reached  90% of maximal function calls                   149.6873233388
 POWELL| Reached  92% of maximal function calls                   149.6871716739
 POWELL| Reached  94% of maximal function calls                   149.6871716739
 POWELL| Reached  96% of maximal function calls                   149.6871716739
 POWELL| Reached  98% of maximal function calls                   149.6871716739
 POWELL| Reached 100% of maximal function calls                   149.6813052026
 POWELL| Reached 100% of maximal function calls                   149.6813052026
 POWELL| Exceeding maximum number of steps
 POWELL| Reached 100% of maximal function calls                   149.6813052026
 POWELL| RMS average of variables                                   0.0002034696
 POWELL| Start optimization  11 of total  50               rhobeg =   0.00065366
 POWELL| Inital value of function                                 149.6813052026
 POWELL| Reached   6% of maximal function calls                   149.6813052026
 POWELL| Reached   8% of maximal function calls                   149.6813052026
 POWELL| Reached  10% of maximal function calls                   145.9188743069
 POWELL| Reached  12% of maximal function calls                   145.9188743069
 POWELL| Reached  14% of maximal function calls                   145.9188743069
 POWELL| Reached  16% of maximal function calls                   145.9188743069
 POWELL| Reached  18% of maximal function calls                   145.9188743069
 POWELL| Reached  20% of maximal function calls                   145.9188743069
 POWELL| Reached  22% of maximal function calls                   145.9188743069
 POWELL| Reached  24% of maximal function calls                   145.9188743069
 POWELL| Reached  26% of maximal function calls                   145.9188743069
 POWELL| Reached  28% of maximal function calls                   145.9188743069
 POWELL| Reached  30% of maximal function calls                   145.9188743069
 POWELL| Reached  32% of maximal function calls                   145.9188743069
 POWELL| Reached  34% of maximal function calls                   145.9188743069
 POWELL| Reached  36% of maximal function calls                   145.9188743069
 POWELL| Reached  38% of maximal function calls                   145.9188743069
 POWELL| Reached  40% of maximal function calls                   145.9188743069
 POWELL| Reached  42% of maximal function calls                   145.9188743069
 POWELL| Reached  44% of maximal function calls                   145.0258323693
 POWELL| Reached  46% of maximal function calls                   145.0258323693
 POWELL| Reached  48% of maximal function calls                   145.0258323693
 POWELL| Reached  50% of maximal function calls                   145.0258323693
 POWELL| Reached  52% of maximal function calls                   145.0258323693
 POWELL| Reached  54% of maximal function calls                   145.0258323693
 POWELL| Reached  56% of maximal function calls                   145.0258323693
 POWELL| Reached  57% of maximal function calls                   144.7658189717
 POWELL| Reached  60% of maximal function calls                   144.7658189717
 POWELL| Reached  62% of maximal function calls                   144.7658189717
 POWELL| Reached  64% of maximal function calls                   144.7201481078
 POWELL| Reached  66% of maximal function calls                   144.6704840345
 POWELL| Reached  68% of maximal function calls                   144.6704840345
 POWELL| Reached  70% of maximal function calls                   144.6644080138
 POWELL| Reached  72% of maximal function calls                   144.6492850166
 POWELL| Reached  74% of maximal function calls                   144.6366966007
 POWELL| Reached  76% of maximal function calls                   144.6366966007
 POWELL| Reached  78% of maximal function calls                   144.6363940647
 POWELL| Reached  80% of maximal function calls                   144.6363940647
 POWELL| Reached  82% of maximal function calls                   144.6363940647
 POWELL| Reached  84% of maximal function calls                   144.6363940647
 POWELL| Reached  86% of maximal function calls                   144.6363940647
 POWELL| Reached  88% of maximal function calls                   144.6363940647
 POWELL| Reached  90% of maximal function calls                   144.6363940647
 POWELL| Reached  92% of maximal function calls                   144.6363940647
 POWELL| Reached  94% of maximal function calls                   144.6363736674
 POWELL| Reached  96% of maximal function calls                   144.6363736674
 POWELL| Reached  98% of maximal function calls                   144.6363697379
 POWELL| Reached 100% of maximal function calls                   144.6363024899
 POWELL| Reached 100% of maximal function calls                   144.6361816123
 POWELL| Exceeding maximum number of steps
 POWELL| Reached 100% of maximal function calls                   144.6361816123
 POWELL| RMS average of variables                                   0.0002007891
 POWELL| Start optimization  12 of total  50               rhobeg =   0.00064059
 POWELL| Inital value of function                                 144.6361816123
 POWELL| Reached   6% of maximal function calls                   144.6361816123
 POWELL| Reached   8% of maximal function calls                   144.6361816123
 POWELL| Reached  10% of maximal function calls                   140.4310145747
 POWELL| Reached  12% of maximal function calls                   140.4310145747
 POWELL| Reached  14% of maximal function calls                   140.4310145747
 POWELL| Reached  16% of maximal function calls                   140.4310145747
 POWELL| Reached  18% of maximal function calls                   140.4310145747
 POWELL| Reached  20% of maximal function calls                   140.4310145747
 POWELL| Reached  22% of maximal function calls                   138.8023092688
 POWELL| Reached  24% of maximal function calls                   138.8023092688
 POWELL| Reached  26% of maximal function calls                   138.8023092688
 POWELL| Reached  28% of maximal function calls                   138.8023092688
 POWELL| Reached  30% of maximal function calls                   138.8023092688
 POWELL| Reached  32% of maximal function calls                   138.8023092688
 POWELL| Reached  34% of maximal function calls                   138.8023092688
 POWELL| Reached  36% of maximal function calls                   138.8023092688
 POWELL| Reached  38% of maximal function calls                   138.8023092688
 POWELL| Reached  40% of maximal function calls                   138.8023092688
 POWELL| Reached  42% of maximal function calls                   138.8023092688
 POWELL| Reached  44% of maximal function calls                   138.8023092688
 POWELL| Reached  46% of maximal function calls                   138.8023092688
 POWELL| Reached  48% of maximal function calls                   138.8023092688
 POWELL| Reached  50% of maximal function calls                   138.8023092688
 POWELL| Reached  52% of maximal function calls                   138.8023092688
 POWELL| Reached  54% of maximal function calls                   138.8023092688
 POWELL| Reached  56% of maximal function calls                   138.8023092688
 POWELL| Reached  57% of maximal function calls                   138.3911077083
 POWELL| Reached  60% of maximal function calls                   138.3911077083
 POWELL| Reached  62% of maximal function calls                   138.3911077083
 POWELL| Reached  64% of maximal function calls                   138.3545573336
 POWELL| Reached  66% of maximal function calls                   138.3010016388
 POWELL| Reached  68% of maximal function calls                   138.3010016388
 POWELL| Reached  70% of maximal function calls                   138.3010016388
 POWELL| Reached  72% of maximal function calls                   138.3010016388
 POWELL| Reached  74% of maximal function calls                   138.3010016388
 POWELL| Reached  76% of maximal function calls                   138.3010016388
 POWELL| Reached  78% of maximal function calls                   138.3010016388
 POWELL| Reached  80% of maximal function calls                   138.3006769155
 POWELL| Reached  82% of maximal function calls                   138.3003642841
 POWELL| Reached  84% of maximal function calls                   138.3003642841
 POWELL| Reached  86% of maximal function calls                   138.3003642841
 POWELL| Reached  88% of maximal function calls                   138.2984237823
 POWELL| Reached  90% of maximal function calls                   138.2984237823
 POWELL| Reached  92% of maximal function calls                   138.2984195293
 POWELL| Reached  94% of maximal function calls                   138.2984195293
 POWELL| Reached  96% of maximal function calls                   138.2984195293
 POWELL| Reached  98% of maximal function calls                   138.2984195293
 POWELL| Reached 100% of maximal function calls                   138.2980296336
 POWELL| Reached 100% of maximal function calls                   138.2965567045
 POWELL| Exceeding maximum number of steps
 POWELL| Reached 100% of maximal function calls                   138.2965567045
 POWELL| RMS average of variables                                   0.0001966830
 POWELL| Start optimization  13 of total  50               rhobeg =   0.00062777
 POWELL| Inital value of function                                 138.2965567045
 POWELL| Reached   6% of maximal function calls                   138.2965567045
 POWELL| Reached   8% of maximal function calls                   138.2965567045
 POWELL| Reached  10% of maximal function calls                   134.9590300876
 POWELL| Reached  12% of maximal function calls                   134.9590300876
 POWELL| Reached  14% of maximal function calls                   134.9590300876
 POWELL| Reached  16% of maximal function calls                   134.9590300876
 POWELL| Reached  18% of maximal function calls                   134.9590300876
 POWELL| Reached  20% of maximal function calls                   134.9590300876
 POWELL| Reached  22% of maximal function calls                   134.9590300876
 POWELL| Reached  24% of maximal function calls                   134.9590300876
 POWELL| Reached  26% of maximal function calls                   134.9590300876
 POWELL| Reached  28% of maximal function calls                   134.9590300876
 POWELL| Reached  30% of maximal function calls                   134.9590300876
 POWELL| Reached  32% of maximal function calls                   134.9590300876
 POWELL| Reached  34% of maximal function calls                   134.9590300876
 POWELL| Reached  36% of maximal function calls                   134.9590300876
 POWELL| Reached  38% of maximal function calls                   134.9590300876
 POWELL| Reached  40% of maximal function calls                   134.9590300876
 POWELL| Reached  42% of maximal function calls                   134.9590300876
 POWELL| Reached  44% of maximal function calls                   134.4808391505
 POWELL| Reached  46% of maximal function calls                   134.4808391505
 POWELL| Reached  48% of maximal function calls                   134.4808391505
 POWELL| Reached  50% of maximal function calls                   134.4808391505
 POWELL| Reached  52% of maximal function calls                   134.4808391505
 POWELL| Reached  54% of maximal function calls                   134.4808391505
 POWELL| Reached  56% of maximal function calls                   134.4808391505
 POWELL| Reached  57% of maximal function calls                   134.2888974853
 POWELL| Reached  60% of maximal function calls                   134.2888974853
 POWELL| Reached  62% of maximal function calls                   134.2888974853
 POWELL| Reached  64% of maximal function calls                   134.2479967849
 POWELL| Reached  66% of maximal function calls                   134.2063768258
 POWELL| Reached  68% of maximal function calls                   134.0623443835
 POWELL| Reached  70% of maximal function calls                   134.0538123572
 POWELL| Reached  72% of maximal function calls                   134.0538123572
 POWELL| Reached  74% of maximal function calls                   134.0510982614
 POWELL| Reached  76% of maximal function calls                   134.0507840579
 POWELL| Reached  78% of maximal function calls                   134.0507840579
 POWELL| Reached  80% of maximal function calls                   134.0507840579
 POWELL| Reached  82% of maximal function calls                   134.0501059817
 POWELL| Reached  84% of maximal function calls                   134.0501059817
 POWELL| Reached  86% of maximal function calls                   134.0497638190
 POWELL| Reached  88% of maximal function calls                   134.0496082292
 POWELL| Reached  90% of maximal function calls                   134.0490366285
 POWELL| Reached  92% of maximal function calls                   134.0490366285
 POWELL| Reached  94% of maximal function calls                   134.0490142731
 POWELL| Reached  96% of maximal function calls                   134.0489929123
 POWELL| Reached  98% of maximal function calls                   134.0489929123
 POWELL| Reached 100% of maximal function calls                   134.0489929123
 POWELL| Reached 100% of maximal function calls                   134.0484734123
 POWELL| Exceeding maximum number of steps
 POWELL| Reached 100% of maximal function calls                   134.0484734123
 POWELL| RMS average of variables                                   0.0001929152
 POWELL| Start optimization  14 of total  50               rhobeg =   0.00061522
 POWELL| Inital value of function                                 134.0484734123
 POWELL| Reached   6% of maximal function calls                   134.0484734123
 POWELL| Reached   8% of maximal function calls                   134.0484734123
 POWELL| Reached  10% of maximal function calls                   130.3307658646
 POWELL| Reached  12% of maximal function calls                   130.3307658646
 POWELL| Reached  14% of maximal function calls                   130.3307658646
 POWELL| Reached  16% of maximal function calls                   130.3307658646
 POWELL| Reached  18% of maximal function calls                   130.3307658646
 POWELL| Reached  20% of maximal function calls                   130.3307658646
 POWELL| Reached  22% of maximal function calls                   128.8285657184
 POWELL| Reached  24% of maximal function calls                   128.8285657184
 POWELL| Reached  26% of maximal function calls                   128.8285657184
 POWELL| Reached  28% of maximal function calls                   128.8285657184
 POWELL| Reached  30% of maximal function calls                   128.8285657184
 POWELL| Reached  32% of maximal function calls                   128.8285657184
 POWELL| Reached  34% of maximal function calls                   128.8285657184
 POWELL| Reached  36% of maximal function calls                   128.8285657184
 POWELL| Reached  38% of maximal function calls                   128.8285657184
 POWELL| Reached  40% of maximal function calls                   128.8285657184
 POWELL| Reached  42% of maximal function calls                   128.8285657184
 POWELL| Reached  44% of maximal function calls                   128.8285657184
 POWELL| Reached  46% of maximal function calls                   128.8285657184
 POWELL| Reached  48% of maximal function calls                   128.8285657184
 POWELL| Reached  50% of maximal function calls                   128.8285657184
 POWELL| Reached  52% of maximal function calls                   128.8285657184
 POWELL| Reached  54% of maximal function calls                   128.8285657184
 POWELL| Reached  56% of maximal function calls                   128.8285657184
 POWELL| Reached  57% of maximal function calls                   128.4654047302
 POWELL| Reached  60% of maximal function calls                   128.4654047302
 POWELL| Reached  62% of maximal function calls                   128.4654047302
 POWELL| Reached  64% of maximal function calls                   128.4331997539
 POWELL| Reached  66% of maximal function calls                   128.3860044571
 POWELL| Reached  68% of maximal function calls                   128.3860044571
 POWELL| Reached  70% of maximal function calls                   128.3860044571
 POWELL| Reached  72% of maximal function calls                   128.3860044571
 POWELL| Reached  74% of maximal function calls                   128.3860044571
 POWELL| Reached  76% of maximal function calls                   128.3860044571
 POWELL| Reached  78% of maximal function calls                   128.3858357837
 POWELL| Reached  80% of maximal function calls                   128.3858357837
 POWELL| Reached  82% of maximal function calls                   128.3858357837
 POWELL| Reached  84% of maximal function calls                   128.3852314155
 POWELL| Reached  86% of maximal function calls                   128.3852306703
 POWELL| Reached  88% of maximal function calls                   128.3852306703
 POWELL| Reached  90% of maximal function calls                   128.3852306703
 POWELL| Reached  92% of maximal function calls                   128.3834558081
 POWELL| Reached  94% of maximal function calls                   128.3828411548
 POWELL| Reached  96% of maximal function calls                   128.3828411548
 POWELL| Reached  98% of maximal function calls                   128.3822986184
 POWELL| Reached 100% of maximal function calls                   128.3822986184
 POWELL| Reached 100% of maximal function calls                   128.3817937907
 POWELL| Exceeding maximum number of steps
 POWELL| Reached 100% of maximal function calls                   128.3817937907
 POWELL| RMS average of variables                                   0.0001888762
 POWELL| Start optimization  15 of total  50               rhobeg =   0.00060291
 POWELL| Inital value of function                                 128.3817937907
 POWELL| Reached   6% of maximal function calls                   128.3817937907
 POWELL| Reached   8% of maximal function calls                   128.3817937907
 POWELL| Reached  10% of maximal function calls                   125.4592388820
 POWELL| Reached  12% of maximal function calls                   125.4592388820
 POWELL| Reached  14% of maximal function calls                   125.4592388820
 POWELL| Reached  16% of maximal function calls                   125.4592388820
 POWELL| Reached  18% of maximal function calls                   125.4592388820
 POWELL| Reached  20% of maximal function calls                   125.4592388820
 POWELL| Reached  22% of maximal function calls                   125.4592388820
 POWELL| Reached  24% of maximal function calls                   125.4592388820
 POWELL| Reached  26% of maximal function calls                   125.4592388820
 POWELL| Reached  28% of maximal function calls                   125.4592388820
 POWELL| Reached  30% of maximal function calls                   125.4592388820
 POWELL| Reached  32% of maximal function calls                   125.4592388820
 POWELL| Reached  34% of maximal function calls                   125.4592388820
 POWELL| Reached  36% of maximal function calls                   125.4592388820
 POWELL| Reached  38% of maximal function calls                   125.4592388820
 POWELL| Reached  40% of maximal function calls                   125.4592388820
 POWELL| Reached  42% of maximal function calls                   125.4592388820
 POWELL| Reached  44% of maximal function calls                   125.1727483409
 POWELL| Reached  46% of maximal function calls                   125.1727483409
 POWELL| Reached  48% of maximal function calls                   125.1727483409
 POWELL| Reached  50% of maximal function calls                   125.1727483409
 POWELL| Reached  52% of maximal function calls                   125.1727483409
 POWELL| Reached  54% of maximal function calls                   125.1727483409
 POWELL| Reached  56% of maximal function calls                   125.1727483409
 POWELL| Reached  57% of maximal function calls                   125.0268163428
 POWELL| Reached  60% of maximal function calls                   125.0268163428
 POWELL| Reached  62% of maximal function calls                   125.0268163428
 POWELL| Reached  64% of maximal function calls                   124.9905919154
 POWELL| Reached  66% of maximal function calls                   124.9554483957
 POWELL| Reached  68% of maximal function calls                   124.8222482376
 POWELL| Reached  70% of maximal function calls                   124.8146365507
 POWELL| Reached  72% of maximal function calls                   124.8146365507
 POWELL| Reached  74% of maximal function calls                   124.8121997064
 POWELL| Reached  76% of maximal function calls                   124.8121997064
 POWELL| Reached  78% of maximal function calls                   124.8121997064
 POWELL| Reached  80% of maximal function calls                   124.8121997064
 POWELL| Reached  82% of maximal function calls                   124.8121997064
 POWELL| Reached  84% of maximal function calls                   124.8120865592
 POWELL| Reached  86% of maximal function calls                   124.8120495767
 POWELL| Reached  88% of maximal function calls                   124.8113015065
 POWELL| Reached  90% of maximal function calls                   124.8113015065
 POWELL| Reached  92% of maximal function calls                   124.8113015065
 POWELL| Reached  94% of maximal function calls                   124.8113015065
 POWELL| Reached  96% of maximal function calls                   124.8113015065
 POWELL| Reached  98% of maximal function calls                   124.8113015065
 POWELL| Reached 100% of maximal function calls                   124.8112052126
 POWELL| Reached 100% of maximal function calls                   124.8109246421
 POWELL| Exceeding maximum number of steps
 POWELL| Reached 100% of maximal function calls                   124.8109246421
 POWELL| RMS average of variables                                   0.0001852810
 POWELL| Start optimization  16 of total  50               rhobeg =   0.00059086
 POWELL| Inital value of function                                 124.8109246421
 POWELL| Reached   6% of maximal function calls                   124.8109246421
 POWELL| Reached   8% of maximal function calls                   124.8109246421
 POWELL| Reached  10% of maximal function calls                   121.5380735840
 POWELL| Reached  12% of maximal function calls                   121.5380735840
 POWELL| Reached  14% of maximal function calls                   121.5380735840
 POWELL| Reached  16% of maximal function calls                   121.5380735840
 POWELL| Reached  18% of maximal function calls                   121.5380735840
 POWELL| Reached  20% of maximal function calls                   121.5380735840
 POWELL| Reached  22% of maximal function calls                   120.1518323639
 POWELL| Reached  24% of maximal function calls                   120.1518323639
 POWELL| Reached  26% of maximal function calls                   120.1518323639
 POWELL| Reached  28% of maximal function calls                   120.1518323639
 POWELL| Reached  30% of maximal function calls                   120.1518323639
 POWELL| Reached  32% of maximal function calls                   120.1518323639
 POWELL| Reached  34% of maximal function calls                   120.1518323639
 POWELL| Reached  36% of maximal function calls                   120.1518323639
 POWELL| Reached  38% of maximal function calls                   120.1518323639
 POWELL| Reached  40% of maximal function calls                   120.1518323639
 POWELL| Reached  42% of maximal function calls                   120.1518323639
 POWELL| Reached  44% of maximal function calls                   120.1518323639
 POWELL| Reached  46% of maximal function calls                   120.1518323639
 POWELL| Reached  48% of maximal function calls                   120.1518323639
 POWELL| Reached  50% of maximal function calls                   120.1518323639
 POWELL| Reached  52% of maximal function calls                   120.1518323639
[...]
 POWELL| Start optimization  48 of total  50               rhobeg =   0.00030954
 POWELL| Inital value of function                                  81.0783516769
 POWELL| Reached   6% of maximal function calls                    81.0783516769
 POWELL| Reached   8% of maximal function calls                    81.0783516769
 POWELL| Reached  10% of maximal function calls                    81.0783516769
 POWELL| Reached  12% of maximal function calls                    81.0783516769
 POWELL| Reached  14% of maximal function calls                    81.0783516769
 POWELL| Reached  16% of maximal function calls                    81.0783516769
 POWELL| Reached  18% of maximal function calls                    81.0783516769
 POWELL| Reached  20% of maximal function calls                    81.0783516769
 POWELL| Reached  22% of maximal function calls                    81.0563201831
 POWELL| Reached  24% of maximal function calls                    81.0563201831
 POWELL| Reached  26% of maximal function calls                    81.0563201831
 POWELL| Reached  28% of maximal function calls                    81.0563201831
 POWELL| Reached  30% of maximal function calls                    81.0563201831
 POWELL| Reached  32% of maximal function calls                    81.0563201831
 POWELL| Reached  34% of maximal function calls                    81.0563201831
 POWELL| Reached  36% of maximal function calls                    81.0563201831
 POWELL| Reached  38% of maximal function calls                    81.0563201831
 POWELL| Reached  40% of maximal function calls                    81.0563201831
 POWELL| Reached  42% of maximal function calls                    81.0563201831
 POWELL| Reached  44% of maximal function calls                    81.0563201831
 POWELL| Reached  46% of maximal function calls                    81.0563201831
 POWELL| Reached  48% of maximal function calls                    81.0563201831
 POWELL| Reached  50% of maximal function calls                    81.0052044748
 POWELL| Reached  52% of maximal function calls                    81.0052044748
 POWELL| Reached  54% of maximal function calls                    81.0052044748
 POWELL| Reached  56% of maximal function calls                    81.0052044748
 POWELL| Reached  57% of maximal function calls                    81.0052044748
 POWELL| Reached  60% of maximal function calls                    81.0052044748
 POWELL| Reached  62% of maximal function calls                    81.0052044748
 POWELL| Reached  64% of maximal function calls                    81.0043782731
 POWELL| Reached  66% of maximal function calls                    81.0040448811
 POWELL| Reached  68% of maximal function calls                    81.0040448811
 POWELL| Reached  70% of maximal function calls                    81.0040448811
 POWELL| Reached  72% of maximal function calls                    81.0030348469
 POWELL| Reached  74% of maximal function calls                    81.0023464187
 POWELL| Reached  76% of maximal function calls                    81.0021282930
 POWELL| Reached  78% of maximal function calls                    81.0021282930
 POWELL| Reached  80% of maximal function calls                    81.0021282930
 POWELL| Reached  82% of maximal function calls                    80.9881571752
 POWELL| Reached  84% of maximal function calls                    80.9881555552
 POWELL| Reached  86% of maximal function calls                    80.9881555552
 POWELL| Reached  88% of maximal function calls                    80.9881546622
 POWELL| Reached  90% of maximal function calls                    80.9881546622
 POWELL| Reached  92% of maximal function calls                    80.9881371607
 POWELL| Reached  94% of maximal function calls                    80.9881331749
 POWELL| Reached  96% of maximal function calls                    80.9881331749
 POWELL| Reached  98% of maximal function calls                    80.9881331749
 POWELL| Reached 100% of maximal function calls                    80.9881262483
 POWELL| Reached 100% of maximal function calls                    80.9881262483
 POWELL| Exceeding maximum number of steps
 POWELL| Reached 100% of maximal function calls                    80.9881262483
 POWELL| RMS average of variables                                   0.0000864975
 POWELL| Start optimization  49 of total  50               rhobeg =   0.00030335
 POWELL| Inital value of function                                  80.9881262483
 POWELL| Reached   6% of maximal function calls                    80.9881262483
 POWELL| Reached   8% of maximal function calls                    80.9881262483
 POWELL| Reached  10% of maximal function calls                    80.9794031676
 POWELL| Reached  12% of maximal function calls                    80.9794031676
 POWELL| Reached  14% of maximal function calls                    80.9794031676
 POWELL| Reached  16% of maximal function calls                    80.9794031676
 POWELL| Reached  18% of maximal function calls                    80.9794031676
 POWELL| Reached  20% of maximal function calls                    80.9794031676
 POWELL| Reached  22% of maximal function calls                    80.9794031676
 POWELL| Reached  24% of maximal function calls                    80.9794031676
 POWELL| Reached  26% of maximal function calls                    80.9794031676
 POWELL| Reached  28% of maximal function calls                    80.9794031676
 POWELL| Reached  30% of maximal function calls                    80.9794031676
 POWELL| Reached  32% of maximal function calls                    80.9794031676
 POWELL| Reached  34% of maximal function calls                    80.9321616741
 POWELL| Reached  36% of maximal function calls                    80.9321616741
 POWELL| Reached  38% of maximal function calls                    80.9321616741
 POWELL| Reached  40% of maximal function calls                    80.9321616741
 POWELL| Reached  42% of maximal function calls                    80.9321616741
 POWELL| Reached  44% of maximal function calls                    80.9321616741
 POWELL| Reached  46% of maximal function calls                    80.9321616741
 POWELL| Reached  48% of maximal function calls                    80.9321616741
 POWELL| Reached  50% of maximal function calls                    80.9321616741
 POWELL| Reached  52% of maximal function calls                    80.9321616741
 POWELL| Reached  54% of maximal function calls                    80.9321616741
 POWELL| Reached  56% of maximal function calls                    80.9321616741
 POWELL| Reached  57% of maximal function calls                    80.9294767326
 POWELL| Reached  60% of maximal function calls                    80.9294767326
 POWELL| Reached  62% of maximal function calls                    80.9171326561
 POWELL| Reached  64% of maximal function calls                    80.9162765972
 POWELL| Reached  66% of maximal function calls                    80.9162765972
 POWELL| Reached  68% of maximal function calls                    80.9162765972
 POWELL| Reached  70% of maximal function calls                    80.9160610285
 POWELL| Reached  72% of maximal function calls                    80.9158781922
 POWELL| Reached  74% of maximal function calls                    80.9138825099
 POWELL| Reached  76% of maximal function calls                    80.9138798547
 POWELL| Reached  78% of maximal function calls                    80.9138798547
 POWELL| Reached  80% of maximal function calls                    80.9136915191
 POWELL| Reached  82% of maximal function calls                    80.9136912687
 POWELL| Reached  84% of maximal function calls                    80.9136846042
 POWELL| Reached  86% of maximal function calls                    80.9136846042
 POWELL| Reached  88% of maximal function calls                    80.9136846042
 POWELL| Reached  90% of maximal function calls                    80.9136846042
 POWELL| Reached  92% of maximal function calls                    80.9136818116
 POWELL| Reached  94% of maximal function calls                    80.9136818116
 POWELL| Reached  96% of maximal function calls                    80.9136817073
 POWELL| Reached  98% of maximal function calls                    80.9136806861
 POWELL| Reached 100% of maximal function calls                    80.9136806861
 POWELL| Reached 100% of maximal function calls                    80.9136806861
 POWELL| Exceeding maximum number of steps
 POWELL| Reached 100% of maximal function calls                    80.9136806861
 POWELL| RMS average of variables                                   0.0000937284
 POWELL| Start optimization  50 of total  50               rhobeg =   0.00029728
 POWELL| Inital value of function                                  80.9136806861
 POWELL| Reached   6% of maximal function calls                    80.9136806861
 POWELL| Reached   8% of maximal function calls                    80.9136806861
 POWELL| Reached  10% of maximal function calls                    80.8611889447
 POWELL| Reached  12% of maximal function calls                    80.8611889447
 POWELL| Reached  14% of maximal function calls                    80.8611889447
 POWELL| Reached  16% of maximal function calls                    80.8611889447
 POWELL| Reached  18% of maximal function calls                    80.8611889447
 POWELL| Reached  20% of maximal function calls                    80.8611889447
 POWELL| Reached  22% of maximal function calls                    80.8611889447
 POWELL| Reached  24% of maximal function calls                    80.8611889447
 POWELL| Reached  26% of maximal function calls                    80.8611889447
 POWELL| Reached  28% of maximal function calls                    80.8611889447
 POWELL| Reached  30% of maximal function calls                    80.8611889447
 POWELL| Reached  32% of maximal function calls                    80.8611889447
 POWELL| Reached  34% of maximal function calls                    80.8611889447
 POWELL| Reached  36% of maximal function calls                    80.8611889447
 POWELL| Reached  38% of maximal function calls                    80.8611889447
 POWELL| Reached  40% of maximal function calls                    80.8611889447
 POWELL| Reached  42% of maximal function calls                    80.8611889447
 POWELL| Reached  44% of maximal function calls                    80.8611889447
 POWELL| Reached  46% of maximal function calls                    80.8611889447
 POWELL| Reached  48% of maximal function calls                    80.8611889447
 POWELL| Reached  50% of maximal function calls                    80.8611889447
 POWELL| Reached  52% of maximal function calls                    80.8611889447
 POWELL| Reached  54% of maximal function calls                    80.8611889447
 POWELL| Reached  56% of maximal function calls                    80.8611889447
 POWELL| Reached  57% of maximal function calls                    80.8611889447
 POWELL| Reached  60% of maximal function calls                    80.8611889447
 POWELL| Reached  62% of maximal function calls                    80.8611889447
 POWELL| Reached  64% of maximal function calls                    80.8611889447
 POWELL| Reached  66% of maximal function calls                    80.8611889447
 POWELL| Reached  68% of maximal function calls                    80.8459593086
 POWELL| Reached  70% of maximal function calls                    80.8452910541
 POWELL| Reached  72% of maximal function calls                    80.8452910541
 POWELL| Reached  74% of maximal function calls                    80.8452910541
 POWELL| Reached  76% of maximal function calls                    80.8452910541
 POWELL| Reached  78% of maximal function calls                    80.8452677535
 POWELL| Reached  80% of maximal function calls                    80.8452677535
 POWELL| Reached  82% of maximal function calls                    80.8452677535
 POWELL| Reached  84% of maximal function calls                    80.8452677535
 POWELL| Reached  86% of maximal function calls                    80.8452677535
 POWELL| Reached  88% of maximal function calls                    80.8452677535
 POWELL| Reached  90% of maximal function calls                    80.8444679565
 POWELL| Reached  92% of maximal function calls                    80.8444679565
 POWELL| Reached  94% of maximal function calls                    80.8444679565
 POWELL| Reached  96% of maximal function calls                    80.8444679565
 POWELL| Reached  98% of maximal function calls                    80.8444679565
 POWELL| Reached 100% of maximal function calls                    80.8444679565
 POWELL| Reached 100% of maximal function calls                    80.8444679565
 POWELL| Exceeding maximum number of steps
 POWELL| Reached 100% of maximal function calls                    80.8444679565
 POWELL| RMS average of variables                                   0.0000825224
 POWELL| Number of function evaluations                                       50
 POWELL| Final value of function                                   80.8444679565

 POWELL| Final errors of target values

 Reference configuration          1               Method number                1
    L    N    Occupation      Eigenvalue [eV]           dE [eV]          dCharge 
    0    1          2.00      -237.8526363247 SC  -0.009109[ 0]    -0.000001[ X]
    0    2          2.00       -20.1184760505 VA   0.001358[ 2]     0.012784[ 3]
    0    3          0.00        -0.3070895957 U1  -0.076554[15]     0.019270[ 0]
    0    4          0.00         4.1548943178 U2  -0.158818[ 0]     0.013730[ 0]
    1    1          6.00      -173.3640876760 SC  -0.015446[ 1]     0.000001[ X]
    1    2          5.00        -7.8498502872 VA   0.007336[68]     0.005986[ 1]
    1    3          0.00         1.2350208496 U1  -0.001335[ X]    -0.000006[ X]
    1    4          0.00         6.0652757172 U2  -0.014264[ X]     0.001412[ 0]
    2    1         10.00       -66.6702773377 SC   0.015496[ 1]    -0.000168[ X]
    2    2          0.00         2.1100944985 U1   0.065429[11]    -0.010106[ 0]
    2    3          0.00         5.7297030035 U2   0.252504[ 0]    -0.023351[ 0]
    3    1          0.00         4.5284402314 U1   0.006511[ 0]    -0.000022[ X]
    s-states N=    1                   Wavefunction at r=0:         0.988491[ 0]
    s-states N=    2                   Wavefunction at r=0:        -2.695498[ 0]
    s-states N=    3                   Wavefunction at r=0:         0.849841[ 0]
    s-states N=    4                   Wavefunction at r=0:         1.086901[ 0]

 Number of target values reached:                                       7 of  21



                             NORMAL TERMINATION OF     
                                                       
                           ****  ******  ****   ****   
                          **  ** ****** **  ** ******  
                          ******   **   **  ** **  **  
                          **  **   **    ****  **  **  


 -------------------------------------------------------------------------------
 -                                                                             -
 -                                DBCSR STATISTICS                             -
 -                                                                             -
 -------------------------------------------------------------------------------
 COUNTER                                    TOTAL       BLAS       SMM       ACC
 flops inhomo. stacks                           0       0.0%      0.0%      0.0%
 flops total                         0.000000E+00       0.0%      0.0%      0.0%
 flops max/rank                      0.000000E+00       0.0%      0.0%      0.0%
 matmuls inhomo. stacks                         0       0.0%      0.0%      0.0%
 matmuls total                                  0       0.0%      0.0%      0.0%
 number of processed stacks                     0       0.0%      0.0%      0.0%
 average stack size                                     0.0       0.0       0.0
 marketing flops                     0.000000E+00
 -------------------------------------------------------------------------------

 MEMORY| Estimated peak process memory [MiB]                                  47

 -------------------------------------------------------------------------------
 -                                                                             -
 -                           R E F E R E N C E S                               -
 -                                                                             -
 -------------------------------------------------------------------------------
 
 CP2K version 7.0 (Development Version), the CP2K developers group (2018).
 CP2K is freely available from https://www.cp2k.org/ .

 Schuett, Ole; Messmer, Peter; Hutter, Juerg; VandeVondele, Joost. 
 Electronic Structure Calculations on Graphics Processing Units, John Wiley & Sons, Ltd, 173-190 (2016). 
 GPU-Accelerated Sparse Matrix-Matrix Multiplication for Linear Scaling Density Functional Theory.
 http://dx.doi.org/10.1002/9781118670712.ch8


 Borstnik, U; VandeVondele, J; Weber, V; Hutter, J. 
 PARALLEL COMPUTING, 40 (5-6), 47-58 (2014). 
 Sparse matrix multiplication: The distributed block-compressed sparse
 row library.
 http://dx.doi.org/10.1016/j.parco.2014.03.012


 Hutter, J; Iannuzzi, M; Schiffmann, F; VandeVondele, J. 
 WILEY INTERDISCIPLINARY REVIEWS-COMPUTATIONAL MOLECULAR SCIENCE, 4 (1), 15-25 (2014). 
 CP2K: atomistic simulations of condensed matter systems.
 http://dx.doi.org/10.1002/wcms.1159


 Frigo, M; Johnson, SG. 
 PROCEEDINGS OF THE IEEE, 93 (2), 216-231 (2005). 
 The design and implementation of FFTW3.
 http://dx.doi.org/10.1109/JPROC.2004.840301


 Perdew, JP; Burke, K; Ernzerhof, M. 
 PHYSICAL REVIEW LETTERS, 77 (18), 3865-3868 (1996). 
 Generalized gradient approximation made simple.
 http://dx.doi.org/10.1103/PhysRevLett.77.3865


 -------------------------------------------------------------------------------
 -                                                                             -
 -                                T I M I N G                                  -
 -                                                                             -
 -------------------------------------------------------------------------------
 SUBROUTINE                       CALLS  ASD         SELF TIME        TOTAL TIME
                                MAXIMUM       AVERAGE  MAXIMUM  AVERAGE  MAXIMUM
 CP2K                                 1  1.0    0.003    0.003  728.222  728.222
 atom_code                            1  2.0    0.000    0.000  728.219  728.219
 atom_pseudo_opt                      1  3.0    5.432    5.432  728.218  728.218
 calculate_atom                    2857  4.0    0.009    0.009  720.012  720.012
 calculate_atom_restricted         2857  5.0  251.016  251.016  720.003  720.003
 calculate_atom_vxc_lda          143806  6.0  438.718  438.718  468.987  468.987
 xc_functional_eval              143806  7.0    0.363    0.363   30.105   30.105
 pbe_lda_eval                    143806  8.0   29.741   29.741   29.741   29.741
 -------------------------------------------------------------------------------

 The number of warnings for this run is : 0
 
 -------------------------------------------------------------------------------
  **** **** ******  **  PROGRAM ENDED AT                 2018-06-24 14:03:33.157
 ***** ** ***  *** **   PROGRAM RAN ON                                    tcpc01
 **    ****   ******    PROGRAM RAN BY                                    hutter
 ***** **    ** ** **   PROGRAM PROCESS ID                                 31180
  **** **  *******  **  PROGRAM STOPPED IN /data/hutter/pseudo/UZH2018/PBE/Br/q2
                                           5
