
  **** **** ******  **  PROGRAM STARTED AT               2018-06-24 20:26:05.265
 ***** ** ***  *** **   PROGRAM STARTED ON                                tcpc01
 **    ****   ******    PROGRAM STARTED BY                                hutter
 ***** **    ** ** **   PROGRAM PROCESS ID                                  2499
  **** **  *******  **  PROGRAM STARTED IN /data/hutter/pseudo/UZH2018/PBE/Sc/q1
                                           1

 CP2K| version string:                    CP2K version 7.0 (Development Version)
 CP2K| source code revision number:                                    svn:18485
 CP2K| cp2kflags: libint fftw3 libxc libderiv_max_am1=5 libint_max_am=6 spglib  
 CP2K| is freely available from                            https://www.cp2k.org/
 CP2K| Program compiled at                         Wed Jun 20 10:41:43 CEST 2018
 CP2K| Program compiled on                                                tcpc01
 CP2K| Program compiled for                                                local
 CP2K| Data directory path                        /data/hutter/CURRENT/cp2k/data
 CP2K| Input file name                                                    Sc.inp

 GLOBAL| Method name                                                        ATOM
 GLOBAL| Project name                                                    PROJECT
 GLOBAL| Preferred FFT library                                             FFTW3
 GLOBAL| Preferred diagonalization lib.                                       SL
 GLOBAL| Run type                                                   ENERGY_FORCE
 GLOBAL| All-to-all communication in single precision                          F
 GLOBAL| FFTs using library dependent lengths                                  F
 GLOBAL| Global print level                                               MEDIUM
 GLOBAL| Total number of message passing processes                             1
 GLOBAL| Number of threads for this process                                    1
 GLOBAL| This output is from process                                           0
 GLOBAL| CPU model name :  Intel(R) Xeon(R) CPU           X5570  @ 2.93GHz

 MEMORY| system memory details [Kb]
 MEMORY|                        rank 0           min           max       average
 MEMORY| MemTotal             37009584      37009584      37009584      37009584
 MEMORY| MemFree              32298680      32298680      32298680      32298680
 MEMORY| Buffers                298452        298452        298452        298452
 MEMORY| Cached                2033112       2033112       2033112       2033112
 MEMORY| Slab                   271740        271740        271740        271740
 MEMORY| SReclaimable           203696        203696        203696        203696
 MEMORY| MemLikelyFree        34833940      34833940      34833940      34833940


 *** Fundamental physical constants (SI units) ***

 *** Literature: B. J. Mohr and B. N. Taylor,
 ***             CODATA recommended values of the fundamental physical
 ***             constants: 2006, Web Version 5.1
 ***             http://physics.nist.gov/constants

 Speed of light in vacuum [m/s]                             2.99792458000000E+08
 Magnetic constant or permeability of vacuum [N/A**2]       1.25663706143592E-06
 Electric constant or permittivity of vacuum [F/m]          8.85418781762039E-12
 Planck constant (h) [J*s]                                  6.62606896000000E-34
 Planck constant (h-bar) [J*s]                              1.05457162825177E-34
 Elementary charge [C]                                      1.60217648700000E-19
 Electron mass [kg]                                         9.10938215000000E-31
 Electron g factor [ ]                                     -2.00231930436220E+00
 Proton mass [kg]                                           1.67262163700000E-27
 Fine-structure constant                                    7.29735253760000E-03
 Rydberg constant [1/m]                                     1.09737315685270E+07
 Avogadro constant [1/mol]                                  6.02214179000000E+23
 Boltzmann constant [J/K]                                   1.38065040000000E-23
 Atomic mass unit [kg]                                      1.66053878200000E-27
 Bohr radius [m]                                            5.29177208590000E-11

 *** Conversion factors ***

 [u] -> [a.u.]                                              1.82288848426455E+03
 [Angstrom] -> [Bohr] = [a.u.]                              1.88972613288564E+00
 [a.u.] = [Bohr] -> [Angstrom]                              5.29177208590000E-01
 [a.u.] -> [s]                                              2.41888432650478E-17
 [a.u.] -> [fs]                                             2.41888432650478E-02
 [a.u.] -> [J]                                              4.35974393937059E-18
 [a.u.] -> [N]                                              8.23872205491840E-08
 [a.u.] -> [K]                                              3.15774647902944E+05
 [a.u.] -> [kJ/mol]                                         2.62549961709828E+03
 [a.u.] -> [kcal/mol]                                       6.27509468713739E+02
 [a.u.] -> [Pa]                                             2.94210107994716E+13
 [a.u.] -> [bar]                                            2.94210107994716E+08
 [a.u.] -> [atm]                                            2.90362800883016E+08
 [a.u.] -> [eV]                                             2.72113838565563E+01
 [a.u.] -> [Hz]                                             6.57968392072181E+15
 [a.u.] -> [1/cm] (wave numbers)                            2.19474631370540E+05
 [a.u./Bohr**2] -> [1/cm]                                   5.14048714338585E+03
 
 DBCSR| Multiplication driver                                               BLAS
 DBCSR| Multrec recursion limit                                              512
 DBCSR| Multiplication stack size                                           1000
 DBCSR| Maximum elements for images                                    UNLIMITED
 DBCSR| Multiplicative factor virtual images                                   1
 DBCSR| Multiplication size stacks                                             3



                           ****  ******  ****   ****   
                          **  ** ****** **  ** ******  
                          ******   **   **  ** **  **  
                          **  **   **    ****  **  **  
                                                       
                             University of Zurich      
                                 2009 - 2015           
                                                       
                                 Version 0.0           
                                                                   


 Atomic Energy Calculation             Scandium [Sc]         Atomic number:   21


 *******************************************************************************
 ************************** Calculate Reference States *************************
 *******************************************************************************

 METHOD    | Restricted Kohn-Sham Calculation
 METHOD    | Relativistic Calculation using Douglas-Kroll 3rd order
 FUNCTIONAL| ROUTINE=NEW
 FUNCTIONAL| PBE:
 FUNCTIONAL| J.P.Perdew, K.Burke, M.Ernzerhof, Phys. Rev. Letter, vol. 77, n 18,
 FUNCTIONAL|  pp. 3865-3868, (1996){spin unpolarized}                           

 Electronic structure
    Total number of core electrons                                          0.00
    Total number of valence electrons                                      21.00
    Total number of electrons                                              21.00
    Multiplicity                                                   not specified
    S      2.00  2.00  2.00  2.00
    P      6.00  6.00
    D      1.00


 *******************************************************************************
                  Iteration          Convergence                     Energy [au]
 *******************************************************************************
                          1         7.94385                    -751.192084979855
                          2         3.26348                    -751.078485779883
                          3         1.02938                    -762.586684141427
                          4        0.497115                    -763.658365433201
                          5        0.366078E-01                -763.953638095148
                          6        0.135974E-01                -763.956765550684
                          7        0.457867E-03                -763.957055868994
                          8        0.657359E-04                -763.957056145251
                          9        0.550494E-05                -763.957056155208
                         10        0.829015E-07                -763.957056155266

 Energy components [Hartree]           Total Energy ::         -763.957056155266
                                        Band Energy ::         -455.235677164083
                                     Kinetic Energy ::          785.006527090788
                                   Potential Energy ::        -1548.963583246054
                                      Virial (-V/T) ::            1.973185610299
                                        Core Energy ::        -1045.189617936038
                                          XC Energy ::          -38.960983566478
                                     Coulomb Energy ::          320.193545347250
                                        Confinement ::            0.000000671089

 Orbital energies  State     L     Occupation   Energy[a.u.]          Energy[eV]

                       1     0          2.000    -161.487728        -4394.304549
                       2     0          2.000     -17.420391         -474.032938
                       3     0          2.000      -2.020596          -54.983207
                       4     0          2.000      -0.152836           -4.158878
                       5     0          0.000       0.046171            1.256385
                       6     0          0.000       0.275005            7.483260

                       1     1          6.000     -14.258470         -387.992696
                       2     1          6.000      -1.233977          -33.578223
                       3     1          0.000      -0.050950           -1.386430
                       4     1          0.000       0.106394            2.895123

                       1     2          1.000      -0.117895           -3.208096
                       2     2          0.000       0.061521            1.674076
                       3     2          0.000       0.236830            6.444481

                       1     3          0.000       0.123844            3.369957


 Total Electron Density at R=0:                                     10525.552368

 *******************************************************************************
 ********************* Optimize Pseudopotential Parameters *********************
 *******************************************************************************

 POWELL| Start optimization procedure

 POWELL| Total number of parameters in optimization                           13

 POWELL| Initial errors of target values

 Reference configuration          1               Method number                1
    L    N    Occupation      Eigenvalue [eV]           dE [eV]          dCharge 
    0    1          2.00       -55.0114188880 SC  -0.028212[17]    -0.000033[ X]
    0    2          2.00        -4.1551405186 VA   0.003737[80]     0.001212[ 0]
    0    3          0.00         1.2528590836 U1  -0.003526[ 0]     0.000922[ X]
    0    4          0.00         7.4648675455 U2  -0.018393[ X]     0.001851[ 0]
    1    1          6.00       -33.5669385338 SC   0.011285[ 2]     0.000038[ X]
    1    2          0.00        -1.3844246775 U1   0.002006[ X]    -0.000072[ X]
    1    3          0.00         2.8961521349 U2   0.001029[ X]    -0.000003[ 0]
    2    1          1.00        -3.2073473740 VA   0.000748[ 1]     0.000582[ 0]
    2    2          0.00         1.6742154536 U1   0.000139[ X]    -0.000132[ X]
    2    3          0.00         6.4467603434 U2   0.002279[ X]    -0.000538[ 0]
    3    1          0.00         3.3707465210 U1   0.000790[ X]    -0.000026[ X]

 Number of target values reached:                                      12 of  19

 POWELL| Start optimization   1 of total 100               rhobeg =   0.00040000
 POWELL| Inital value of function                                  17.1058929881
 POWELL| Reached   6% of maximal function calls                    17.1058929881
 POWELL| Reached   8% of maximal function calls                    17.1058929881
 POWELL| Reached  10% of maximal function calls                    17.1058929881
 POWELL| Reached  12% of maximal function calls                    17.1058929881
 POWELL| Reached  14% of maximal function calls                    17.1058929881
 POWELL| Reached  16% of maximal function calls                    17.1058929881
 POWELL| Reached  18% of maximal function calls                    17.1058929881
 POWELL| Reached  20% of maximal function calls                    17.1058929881
 POWELL| Reached  22% of maximal function calls                    17.1058929881
 POWELL| Reached  24% of maximal function calls                    17.1058929881
 POWELL| Reached  26% of maximal function calls                    17.1058929881
 POWELL| Reached  28% of maximal function calls                    17.1058929881
 POWELL| Reached  30% of maximal function calls                    17.1058929881
 POWELL| Reached  32% of maximal function calls                    17.1058929881
 POWELL| Reached  34% of maximal function calls                    17.0923870812
 POWELL| Reached  36% of maximal function calls                    17.0923870812
 POWELL| Reached  38% of maximal function calls                    17.0923870812
 POWELL| Reached  40% of maximal function calls                    17.0923870812
 POWELL| Reached  42% of maximal function calls                    17.0923870812
 POWELL| Reached  44% of maximal function calls                    17.0923870812
 POWELL| Reached  46% of maximal function calls                    17.0923870812
 POWELL| Reached  48% of maximal function calls                    17.0923870812
 POWELL| Reached  50% of maximal function calls                    17.0923870812
 POWELL| Reached  52% of maximal function calls                    17.0923870812
 POWELL| Reached  54% of maximal function calls                    17.0923870812
 POWELL| Reached  56% of maximal function calls                    17.0923870812
 POWELL| Reached  57% of maximal function calls                    17.0913399937
 POWELL| Reached  60% of maximal function calls                    17.0913399937
 POWELL| Reached  62% of maximal function calls                    17.0848381273
 POWELL| Reached  64% of maximal function calls                    17.0844271803
 POWELL| Reached  66% of maximal function calls                    17.0844271803
 POWELL| Reached  68% of maximal function calls                    17.0844271803
 POWELL| Reached  70% of maximal function calls                    17.0844271803
 POWELL| Reached  72% of maximal function calls                    17.0844271803
 POWELL| Reached  74% of maximal function calls                    17.0844271803
 POWELL| Reached  76% of maximal function calls                    17.0844271803
 POWELL| Reached  78% of maximal function calls                    17.0844271803
 POWELL| Reached  80% of maximal function calls                    17.0844271803
 POWELL| Reached  82% of maximal function calls                    17.0840116296
 POWELL| Reached  84% of maximal function calls                    17.0840116296
 POWELL| Reached  86% of maximal function calls                    17.0840116296
 POWELL| Reached  88% of maximal function calls                    17.0839837263
 POWELL| Reached  90% of maximal function calls                    17.0838957177
 POWELL| Reached  92% of maximal function calls                    17.0838705390
 POWELL| Reached  94% of maximal function calls                    17.0838705390
 POWELL| Reached  96% of maximal function calls                    17.0838705390
 POWELL| Reached  98% of maximal function calls                    17.0838705390
 POWELL| Reached 100% of maximal function calls                    17.0838398713
 POWELL| Reached 100% of maximal function calls                    17.0838213391
 POWELL| Exceeding maximum number of steps
 POWELL| Reached 100% of maximal function calls                    17.0838213391
 POWELL| RMS average of variables                                   0.0001236824
 POWELL| Start optimization   2 of total 100               rhobeg =   0.00039200
 POWELL| Inital value of function                                  17.0838213391
 POWELL| Reached   6% of maximal function calls                    17.0838213391
 POWELL| Reached   8% of maximal function calls                    17.0838213391
 POWELL| Reached  10% of maximal function calls                    17.0838213391
 POWELL| Reached  12% of maximal function calls                    17.0838213391
 POWELL| Reached  14% of maximal function calls                    17.0838213391
 POWELL| Reached  16% of maximal function calls                    17.0838213391
 POWELL| Reached  18% of maximal function calls                    17.0838213391
 POWELL| Reached  20% of maximal function calls                    17.0838213391
 POWELL| Reached  22% of maximal function calls                    17.0838213391
 POWELL| Reached  24% of maximal function calls                    17.0838213391
 POWELL| Reached  26% of maximal function calls                    17.0838213391
 POWELL| Reached  28% of maximal function calls                    17.0838213391
 POWELL| Reached  30% of maximal function calls                    17.0838213391
 POWELL| Reached  32% of maximal function calls                    17.0838213391
 POWELL| Reached  34% of maximal function calls                    17.0815887957
 POWELL| Reached  36% of maximal function calls                    17.0815887957
 POWELL| Reached  38% of maximal function calls                    17.0815887957
 POWELL| Reached  40% of maximal function calls                    17.0815887957
 POWELL| Reached  42% of maximal function calls                    17.0815887957
 POWELL| Reached  44% of maximal function calls                    17.0815887957
 POWELL| Reached  46% of maximal function calls                    17.0815887957
 POWELL| Reached  48% of maximal function calls                    17.0815887957
 POWELL| Reached  50% of maximal function calls                    17.0815887957
 POWELL| Reached  52% of maximal function calls                    17.0815887957
 POWELL| Reached  54% of maximal function calls                    17.0815887957
 POWELL| Reached  56% of maximal function calls                    17.0815887957
 POWELL| Reached  57% of maximal function calls                    17.0815887957
 POWELL| Reached  60% of maximal function calls                    17.0815887957
 POWELL| Reached  62% of maximal function calls                    17.0723157281
 POWELL| Reached  64% of maximal function calls                    17.0718364916
 POWELL| Reached  66% of maximal function calls                    17.0718364916
 POWELL| Reached  68% of maximal function calls                    17.0718364916
 POWELL| Reached  70% of maximal function calls                    17.0718364916
 POWELL| Reached  72% of maximal function calls                    17.0554392421
 POWELL| Reached  74% of maximal function calls                    17.0554392421
 POWELL| Reached  76% of maximal function calls                    17.0554392421
 POWELL| Reached  78% of maximal function calls                    17.0549281050
 POWELL| Reached  80% of maximal function calls                    17.0549281050
 POWELL| Reached  82% of maximal function calls                    17.0540739760
 POWELL| Reached  84% of maximal function calls                    17.0540739760
 POWELL| Reached  86% of maximal function calls                    17.0540739760
 POWELL| Reached  88% of maximal function calls                    17.0540739760
 POWELL| Reached  90% of maximal function calls                    17.0540739760
 POWELL| Reached  92% of maximal function calls                    17.0540739760
 POWELL| Reached  94% of maximal function calls                    17.0540699347
 POWELL| Reached  96% of maximal function calls                    17.0540699347
 POWELL| Reached  98% of maximal function calls                    17.0540699347
 POWELL| Reached 100% of maximal function calls                    17.0540699347
 POWELL| Reached 100% of maximal function calls                    17.0540699347
 POWELL| Exceeding maximum number of steps
 POWELL| Reached 100% of maximal function calls                    17.0540699347
 POWELL| RMS average of variables                                   0.0001102004
 POWELL| Start optimization   3 of total 100               rhobeg =   0.00038416
 POWELL| Inital value of function                                  17.0540699347
 POWELL| Reached   6% of maximal function calls                    17.0540699347
 POWELL| Reached   8% of maximal function calls                    17.0540699347
 POWELL| Reached  10% of maximal function calls                    17.0540699347
 POWELL| Reached  12% of maximal function calls                    17.0540699347
 POWELL| Reached  14% of maximal function calls                    17.0540699347
 POWELL| Reached  16% of maximal function calls                    17.0540699347
 POWELL| Reached  18% of maximal function calls                    17.0540699347
 POWELL| Reached  20% of maximal function calls                    17.0540699347
 POWELL| Reached  22% of maximal function calls                    17.0540699347
 POWELL| Reached  24% of maximal function calls                    17.0540699347
 POWELL| Reached  26% of maximal function calls                    17.0540699347
 POWELL| Reached  28% of maximal function calls                    17.0540699347
 POWELL| Reached  30% of maximal function calls                    17.0540699347
 POWELL| Reached  32% of maximal function calls                    17.0540699347
 POWELL| Reached  34% of maximal function calls                    17.0534941869
 POWELL| Reached  36% of maximal function calls                    17.0534941869
 POWELL| Reached  38% of maximal function calls                    17.0534941869
 POWELL| Reached  40% of maximal function calls                    17.0534941869
 POWELL| Reached  42% of maximal function calls                    17.0534941869
 POWELL| Reached  44% of maximal function calls                    17.0534941869
 POWELL| Reached  46% of maximal function calls                    17.0534941869
 POWELL| Reached  48% of maximal function calls                    17.0534941869
 POWELL| Reached  50% of maximal function calls                    17.0456781217
 POWELL| Reached  52% of maximal function calls                    17.0456781217
 POWELL| Reached  54% of maximal function calls                    17.0456781217
 POWELL| Reached  56% of maximal function calls                    17.0456781217
 POWELL| Reached  57% of maximal function calls                    17.0456781217
 POWELL| Reached  60% of maximal function calls                    17.0456781217
 POWELL| Reached  62% of maximal function calls                    17.0456781217
 POWELL| Reached  64% of maximal function calls                    17.0456781217
 POWELL| Reached  66% of maximal function calls                    17.0456781217
 POWELL| Reached  68% of maximal function calls                    17.0452548467
 POWELL| Reached  70% of maximal function calls                    17.0452422907
 POWELL| Reached  72% of maximal function calls                    17.0435355574
 POWELL| Reached  74% of maximal function calls                    17.0423941039
 POWELL| Reached  76% of maximal function calls                    17.0423941039
 POWELL| Reached  78% of maximal function calls                    17.0423693270
 POWELL| Reached  80% of maximal function calls                    17.0423510292
 POWELL| Reached  82% of maximal function calls                    17.0423425223
 POWELL| Reached  84% of maximal function calls                    17.0423417031
 POWELL| Reached  86% of maximal function calls                    17.0423417031
 POWELL| Reached  88% of maximal function calls                    17.0423410186
 POWELL| Reached  90% of maximal function calls                    17.0423391926
 POWELL| Reached  92% of maximal function calls                    17.0423391926
 POWELL| Reached  94% of maximal function calls                    17.0423365391
 POWELL| Reached  96% of maximal function calls                    17.0423352186
 POWELL| Reached  98% of maximal function calls                    17.0423352186
 POWELL| Reached 100% of maximal function calls                    17.0423342352
 POWELL| Reached 100% of maximal function calls                    17.0423342352
 POWELL| Exceeding maximum number of steps
 POWELL| Reached 100% of maximal function calls                    17.0423342352
 POWELL| RMS average of variables                                   0.0001067227
 POWELL| Start optimization   4 of total 100               rhobeg =   0.00037648
 POWELL| Inital value of function                                  17.0423342352
 POWELL| Reached   6% of maximal function calls                    17.0423342352
 POWELL| Reached   8% of maximal function calls                    17.0423342352
 POWELL| Reached  10% of maximal function calls                    17.0423342352
 POWELL| Reached  12% of maximal function calls                    17.0423342352
 POWELL| Reached  14% of maximal function calls                    17.0423342352
 POWELL| Reached  16% of maximal function calls                    17.0423342352
 POWELL| Reached  18% of maximal function calls                    17.0423342352
 POWELL| Reached  20% of maximal function calls                    17.0423342352
 POWELL| Reached  22% of maximal function calls                    17.0423342352
 POWELL| Reached  24% of maximal function calls                    17.0423342352
 POWELL| Reached  26% of maximal function calls                    17.0423342352
 POWELL| Reached  28% of maximal function calls                    17.0423342352
 POWELL| Reached  30% of maximal function calls                    17.0423342352
 POWELL| Reached  32% of maximal function calls                    17.0423342352
 POWELL| Reached  34% of maximal function calls                    17.0200686802
 POWELL| Reached  36% of maximal function calls                    17.0200686802
 POWELL| Reached  38% of maximal function calls                    17.0200686802
 POWELL| Reached  40% of maximal function calls                    17.0200686802
 POWELL| Reached  42% of maximal function calls                    17.0200686802
 POWELL| Reached  44% of maximal function calls                    17.0200686802
 POWELL| Reached  46% of maximal function calls                    17.0200686802
 POWELL| Reached  48% of maximal function calls                    17.0200686802
 POWELL| Reached  50% of maximal function calls                    17.0200686802
 POWELL| Reached  52% of maximal function calls                    17.0200686802
 POWELL| Reached  54% of maximal function calls                    17.0200686802
 POWELL| Reached  56% of maximal function calls                    17.0200686802
 POWELL| Reached  57% of maximal function calls                    17.0187717287
 POWELL| Reached  60% of maximal function calls                    17.0187717287
 POWELL| Reached  62% of maximal function calls                    17.0135104759
 POWELL| Reached  64% of maximal function calls                    17.0131388607
 POWELL| Reached  66% of maximal function calls                    17.0131388607
 POWELL| Reached  68% of maximal function calls                    17.0131388607
 POWELL| Reached  70% of maximal function calls                    17.0129544818
 POWELL| Reached  72% of maximal function calls                    17.0128067316
 POWELL| Reached  74% of maximal function calls                    17.0128067316
 POWELL| Reached  76% of maximal function calls                    17.0128035798
 POWELL| Reached  78% of maximal function calls                    17.0128035798
 POWELL| Reached  80% of maximal function calls                    17.0127846965
 POWELL| Reached  82% of maximal function calls                    17.0127846965
 POWELL| Reached  84% of maximal function calls                    17.0127838520
 POWELL| Reached  86% of maximal function calls                    17.0127803981
 POWELL| Reached  88% of maximal function calls                    17.0127803981
 POWELL| Reached  90% of maximal function calls                    17.0127803981
 POWELL| Reached  92% of maximal function calls                    17.0127800791
 POWELL| Reached  94% of maximal function calls                    17.0127800791
 POWELL| Reached  96% of maximal function calls                    17.0127798668
 POWELL| Reached  98% of maximal function calls                    17.0127793973
 POWELL| Reached 100% of maximal function calls                    17.0127793973
 POWELL| Reached 100% of maximal function calls                    17.0127793973
 POWELL| Exceeding maximum number of steps
 POWELL| Reached 100% of maximal function calls                    17.0127793973
 POWELL| RMS average of variables                                   0.0001163426
 POWELL| Start optimization   5 of total 100               rhobeg =   0.00036895
 POWELL| Inital value of function                                  17.0127793973
 POWELL| Reached   6% of maximal function calls                    17.0127793973
 POWELL| Reached   8% of maximal function calls                    17.0127793973
 POWELL| Reached  10% of maximal function calls                    17.0127793973
 POWELL| Reached  12% of maximal function calls                    17.0127793973
 POWELL| Reached  14% of maximal function calls                    17.0127793973
 POWELL| Reached  16% of maximal function calls                    17.0127793973
 POWELL| Reached  18% of maximal function calls                    17.0127793973
 POWELL| Reached  20% of maximal function calls                    17.0127793973
 POWELL| Reached  22% of maximal function calls                    17.0127793973
 POWELL| Reached  24% of maximal function calls                    17.0127793973
 POWELL| Reached  26% of maximal function calls                    17.0127793973
 POWELL| Reached  28% of maximal function calls                    17.0127793973
 POWELL| Reached  30% of maximal function calls                    17.0127793973
 POWELL| Reached  32% of maximal function calls                    17.0127793973
 POWELL| Reached  34% of maximal function calls                    17.0033431703
 POWELL| Reached  36% of maximal function calls                    17.0033431703
 POWELL| Reached  38% of maximal function calls                    17.0033431703
 POWELL| Reached  40% of maximal function calls                    17.0033431703
 POWELL| Reached  42% of maximal function calls                    17.0033431703
 POWELL| Reached  44% of maximal function calls                    17.0033431703
 POWELL| Reached  46% of maximal function calls                    17.0033431703
 POWELL| Reached  48% of maximal function calls                    17.0033431703
 POWELL| Reached  50% of maximal function calls                    17.0033431703
 POWELL| Reached  52% of maximal function calls                    17.0033431703
 POWELL| Reached  54% of maximal function calls                    17.0033431703
 POWELL| Reached  56% of maximal function calls                    17.0033431703
 POWELL| Reached  57% of maximal function calls                    17.0032923816
 POWELL| Reached  60% of maximal function calls                    17.0032923816
 POWELL| Reached  62% of maximal function calls                    16.9938577432
 POWELL| Reached  64% of maximal function calls                    16.9933761918
 POWELL| Reached  66% of maximal function calls                    16.9933761918
 POWELL| Reached  68% of maximal function calls                    16.9933761918
 POWELL| Reached  70% of maximal function calls                    16.9933761918
 POWELL| Reached  72% of maximal function calls                    16.9933761918
 POWELL| Reached  74% of maximal function calls                    16.9933761918
 POWELL| Reached  76% of maximal function calls                    16.9933761918
 POWELL| Reached  78% of maximal function calls                    16.9932552734
 POWELL| Reached  80% of maximal function calls                    16.9932552734
 POWELL| Reached  82% of maximal function calls                    16.9932439851
 POWELL| Reached  84% of maximal function calls                    16.9932439851
 POWELL| Reached  86% of maximal function calls                    16.9932439851
 POWELL| Reached  88% of maximal function calls                    16.9932439851
 POWELL| Reached  90% of maximal function calls                    16.9932369050
 POWELL| Reached  92% of maximal function calls                    16.9932369050
 POWELL| Reached  94% of maximal function calls                    16.9927078835
 POWELL| Reached  96% of maximal function calls                    16.9927078835
 POWELL| Reached  98% of maximal function calls                    16.9926023562
 POWELL| Reached 100% of maximal function calls                    16.9926023562
 POWELL| Reached 100% of maximal function calls                    16.9926023562
 POWELL| Exceeding maximum number of steps
 POWELL| Reached 100% of maximal function calls                    16.9926023562
 POWELL| RMS average of variables                                   0.0001139853
 POWELL| Start optimization   6 of total 100               rhobeg =   0.00036157
 POWELL| Inital value of function                                  16.9926023562
 POWELL| Reached   6% of maximal function calls                    16.9926023562
 POWELL| Reached   8% of maximal function calls                    16.9926023562
 POWELL| Reached  10% of maximal function calls                    16.9926023562
 POWELL| Reached  12% of maximal function calls                    16.9926023562
 POWELL| Reached  14% of maximal function calls                    16.9926023562
 POWELL| Reached  16% of maximal function calls                    16.9926023562
 POWELL| Reached  18% of maximal function calls                    16.9926023562
 POWELL| Reached  20% of maximal function calls                    16.9926023562
 POWELL| Reached  22% of maximal function calls                    16.9926023562
 POWELL| Reached  24% of maximal function calls                    16.9926023562
 POWELL| Reached  26% of maximal function calls                    16.9926023562
 POWELL| Reached  28% of maximal function calls                    16.9926023562
 POWELL| Reached  30% of maximal function calls                    16.9926023562
 POWELL| Reached  32% of maximal function calls                    16.9926023562
 POWELL| Reached  34% of maximal function calls                    16.9926023562
 POWELL| Reached  36% of maximal function calls                    16.9926023562
 POWELL| Reached  38% of maximal function calls                    16.9926023562
 POWELL| Reached  40% of maximal function calls                    16.9926023562
 POWELL| Reached  42% of maximal function calls                    16.9926023562
 POWELL| Reached  44% of maximal function calls                    16.9859159654
 POWELL| Reached  46% of maximal function calls                    16.9859159654
 POWELL| Reached  48% of maximal function calls                    16.9859159654
 POWELL| Reached  50% of maximal function calls                    16.9817971619
 POWELL| Reached  52% of maximal function calls                    16.9817971619
 POWELL| Reached  54% of maximal function calls                    16.9817971619
 POWELL| Reached  56% of maximal function calls                    16.9817971619
 POWELL| Reached  57% of maximal function calls                    16.9817971619
 POWELL| Reached  60% of maximal function calls                    16.9817971619
 POWELL| Reached  62% of maximal function calls                    16.9817971619
 POWELL| Reached  64% of maximal function calls                    16.9817738121
 POWELL| Reached  66% of maximal function calls                    16.9817738121
 POWELL| Reached  68% of maximal function calls                    16.9817738121
 POWELL| Reached  70% of maximal function calls                    16.9817447643
 POWELL| Reached  72% of maximal function calls                    16.9817284872
 POWELL| Reached  74% of maximal function calls                    16.9815087672
 POWELL| Reached  76% of maximal function calls                    16.9813673080
 POWELL| Reached  78% of maximal function calls                    16.9812644498
 POWELL| Reached  80% of maximal function calls                    16.9812644498
 POWELL| Reached  82% of maximal function calls                    16.9812644498
 POWELL| Reached  84% of maximal function calls                    16.9812644498
 POWELL| Reached  86% of maximal function calls                    16.9812608138
 POWELL| Reached  88% of maximal function calls                    16.9812583575
 POWELL| Reached  90% of maximal function calls                    16.9812573346
 POWELL| Reached  92% of maximal function calls                    16.9812554475
 POWELL| Reached  94% of maximal function calls                    16.9812535542
 POWELL| Reached  96% of maximal function calls                    16.9812529947
 POWELL| Reached  98% of maximal function calls                    16.9812529947
 POWELL| Reached 100% of maximal function calls                    16.9812521762
 POWELL| Reached 100% of maximal function calls                    16.9812521762
 POWELL| Exceeding maximum number of steps
 POWELL| Reached 100% of maximal function calls                    16.9812521762
 POWELL| RMS average of variables                                   0.0001003430
 POWELL| Start optimization   7 of total 100               rhobeg =   0.00035434
 POWELL| Inital value of function                                  16.9812521762
 POWELL| Reached   6% of maximal function calls                    16.9812521762
 POWELL| Reached   8% of maximal function calls                    16.9812521762
 POWELL| Reached  10% of maximal function calls                    16.9812521762
 POWELL| Reached  12% of maximal function calls                    16.9812521762
 POWELL| Reached  14% of maximal function calls                    16.9812521762
 POWELL| Reached  16% of maximal function calls                    16.9812521762
 POWELL| Reached  18% of maximal function calls                    16.9812521762
 POWELL| Reached  20% of maximal function calls                    16.9812521762
 POWELL| Reached  22% of maximal function calls                    16.9812521762
 POWELL| Reached  24% of maximal function calls                    16.9812521762
 POWELL| Reached  26% of maximal function calls                    16.9812521762
 POWELL| Reached  28% of maximal function calls                    16.9812521762
 POWELL| Reached  30% of maximal function calls                    16.9812521762
 POWELL| Reached  32% of maximal function calls                    16.9812521762
 POWELL| Reached  34% of maximal function calls                    16.9641744426
 POWELL| Reached  36% of maximal function calls                    16.9641744426
 POWELL| Reached  38% of maximal function calls                    16.9641744426
 POWELL| Reached  40% of maximal function calls                    16.9641744426
 POWELL| Reached  42% of maximal function calls                    16.9641744426
 POWELL| Reached  44% of maximal function calls                    16.9641744426
 POWELL| Reached  46% of maximal function calls                    16.9641744426
 POWELL| Reached  48% of maximal function calls                    16.9641744426
 POWELL| Reached  50% of maximal function calls                    16.9641744426
 POWELL| Reached  52% of maximal function calls                    16.9641744426
 POWELL| Reached  54% of maximal function calls                    16.9641744426
 POWELL| Reached  56% of maximal function calls                    16.9641744426
 POWELL| Reached  57% of maximal function calls                    16.9628781629
 POWELL| Reached  60% of maximal function calls                    16.9628781629
 POWELL| Reached  62% of maximal function calls                    16.9578728906
 POWELL| Reached  64% of maximal function calls                    16.9575131931
 POWELL| Reached  66% of maximal function calls                    16.9575131931
 POWELL| Reached  68% of maximal function calls                    16.9575131931
 POWELL| Reached  70% of maximal function calls                    16.9572177106
 POWELL| Reached  72% of maximal function calls                    16.9572177106
 POWELL| Reached  74% of maximal function calls                    16.9572177106
 POWELL| Reached  76% of maximal function calls                    16.9572177106
 POWELL| Reached  78% of maximal function calls                    16.9572177106
 POWELL| Reached  80% of maximal function calls                    16.9571318758
 POWELL| Reached  82% of maximal function calls                    16.9567490831
 POWELL| Reached  84% of maximal function calls                    16.9567490831
 POWELL| Reached  86% of maximal function calls                    16.9567490831
 POWELL| Reached  88% of maximal function calls                    16.9565251434
 POWELL| Reached  90% of maximal function calls                    16.9565112873
 POWELL| Reached  92% of maximal function calls                    16.9565112873
 POWELL| Reached  94% of maximal function calls                    16.9565108173
 POWELL| Reached  96% of maximal function calls                    16.9565108173
 POWELL| Reached  98% of maximal function calls                    16.9565108173
 POWELL| Reached 100% of maximal function calls                    16.9565108173
 POWELL| Reached 100% of maximal function calls                    16.9565108173
 POWELL| Exceeding maximum number of steps
 POWELL| Reached 100% of maximal function calls                    16.9565108173
 POWELL| RMS average of variables                                   0.0001094466
 POWELL| Start optimization   8 of total 100               rhobeg =   0.00034725
 POWELL| Inital value of function                                  16.9565108173
 POWELL| Reached   6% of maximal function calls                    16.9565108173
 POWELL| Reached   8% of maximal function calls                    16.9565108173
 POWELL| Reached  10% of maximal function calls                    16.9565108173
 POWELL| Reached  12% of maximal function calls                    16.9565108173
 POWELL| Reached  14% of maximal function calls                    16.9565108173
 POWELL| Reached  16% of maximal function calls                    16.9565108173
 POWELL| Reached  18% of maximal function calls                    16.9565108173
 POWELL| Reached  20% of maximal function calls                    16.9565108173
 POWELL| Reached  22% of maximal function calls                    16.9565108173
 POWELL| Reached  24% of maximal function calls                    16.9565108173
 POWELL| Reached  26% of maximal function calls                    16.9565108173
 POWELL| Reached  28% of maximal function calls                    16.9565108173
 POWELL| Reached  30% of maximal function calls                    16.9565108173
 POWELL| Reached  32% of maximal function calls                    16.9565108173
 POWELL| Reached  34% of maximal function calls                    16.9466309001
 POWELL| Reached  36% of maximal function calls                    16.9466309001
 POWELL| Reached  38% of maximal function calls                    16.9466309001
 POWELL| Reached  40% of maximal function calls                    16.9466309001
 POWELL| Reached  42% of maximal function calls                    16.9466309001
 POWELL| Reached  44% of maximal function calls                    16.9466309001
 POWELL| Reached  46% of maximal function calls                    16.9466309001
 POWELL| Reached  48% of maximal function calls                    16.9466309001
 POWELL| Reached  50% of maximal function calls                    16.9466309001
 POWELL| Reached  52% of maximal function calls                    16.9466309001
 POWELL| Reached  54% of maximal function calls                    16.9466309001
 POWELL| Reached  56% of maximal function calls                    16.9466309001
 POWELL| Reached  57% of maximal function calls                    16.9464354086
 POWELL| Reached  60% of maximal function calls                    16.9464354086
 POWELL| Reached  62% of maximal function calls                    16.9377670235
 POWELL| Reached  64% of maximal function calls                    16.9373113310
 POWELL| Reached  66% of maximal function calls                    16.9373113310
 POWELL| Reached  68% of maximal function calls                    16.9373113310
 POWELL| Reached  70% of maximal function calls                    16.9373113310
 POWELL| Reached  72% of maximal function calls                    16.9373113310
 POWELL| Reached  74% of maximal function calls                    16.9373113310
 POWELL| Reached  76% of maximal function calls                    16.9373113310
 POWELL| Reached  78% of maximal function calls                    16.9371948530
 POWELL| Reached  80% of maximal function calls                    16.9371948530
 POWELL| Reached  82% of maximal function calls                    16.9371948530
 POWELL| Reached  84% of maximal function calls                    16.9371948530
 POWELL| Reached  86% of maximal function calls                    16.9371948530
 POWELL| Reached  88% of maximal function calls                    16.9371948530
 POWELL| Reached  90% of maximal function calls                    16.9367997052
 POWELL| Reached  92% of maximal function calls                    16.9367407642
 POWELL| Reached  94% of maximal function calls                    16.9361061189
 POWELL| Reached  96% of maximal function calls                    16.9359047093
 POWELL| Reached  98% of maximal function calls                    16.9359047093
 POWELL| Reached 100% of maximal function calls                    16.9358452968
 POWELL| Reached 100% of maximal function calls                    16.9357956160
 POWELL| Exceeding maximum number of steps
 POWELL| Reached 100% of maximal function calls                    16.9357956160
 POWELL| RMS average of variables                                   0.0001071808
 POWELL| Start optimization   9 of total 100               rhobeg =   0.00034031
 POWELL| Inital value of function                                  16.9357956160
 POWELL| Reached   6% of maximal function calls                    16.9357956160
 POWELL| Reached   8% of maximal function calls                    16.9357956160
 POWELL| Reached  10% of maximal function calls                    16.9357956160
 POWELL| Reached  12% of maximal function calls                    16.9357956160
 POWELL| Reached  14% of maximal function calls                    16.9357956160
 POWELL| Reached  16% of maximal function calls                    16.9357956160
 POWELL| Reached  18% of maximal function calls                    16.9357956160
 POWELL| Reached  20% of maximal function calls                    16.9357956160
 POWELL| Reached  22% of maximal function calls                    16.9357956160
 POWELL| Reached  24% of maximal function calls                    16.9357956160
 POWELL| Reached  26% of maximal function calls                    16.9357956160
 POWELL| Reached  28% of maximal function calls                    16.9357956160
 POWELL| Reached  30% of maximal function calls                    16.9357956160
 POWELL| Reached  32% of maximal function calls                    16.9357956160
 POWELL| Reached  34% of maximal function calls                    16.9348692037
 POWELL| Reached  36% of maximal function calls                    16.9348692037
 POWELL| Reached  38% of maximal function calls                    16.9348692037
 POWELL| Reached  40% of maximal function calls                    16.9348692037
 POWELL| Reached  42% of maximal function calls                    16.9348692037
 POWELL| Reached  44% of maximal function calls                    16.9305860985
 POWELL| Reached  46% of maximal function calls                    16.9305860985
 POWELL| Reached  48% of maximal function calls                    16.9305860985
 POWELL| Reached  50% of maximal function calls                    16.9295272473
 POWELL| Reached  52% of maximal function calls                    16.9295272473
 POWELL| Reached  54% of maximal function calls                    16.9295272473
 POWELL| Reached  56% of maximal function calls                    16.9295272473
 POWELL| Reached  57% of maximal function calls                    16.9295272473
 POWELL| Reached  60% of maximal function calls                    16.9295272473
 POWELL| Reached  62% of maximal function calls                    16.9295272473
 POWELL| Reached  64% of maximal function calls                    16.9295183112
 POWELL| Reached  66% of maximal function calls                    16.9295183112
 POWELL| Reached  68% of maximal function calls                    16.9295183112
 POWELL| Reached  70% of maximal function calls                    16.9295000841
 POWELL| Reached  72% of maximal function calls                    16.9294935148
 POWELL| Reached  74% of maximal function calls                    16.9292941328
 POWELL| Reached  76% of maximal function calls                    16.9291455200
 POWELL| Reached  78% of maximal function calls                    16.9290373202
 POWELL| Reached  80% of maximal function calls                    16.9290063449
 POWELL| Reached  82% of maximal function calls                    16.9290063449
 POWELL| Reached  84% of maximal function calls                    16.9290063449
 POWELL| Reached  86% of maximal function calls                    16.9290063449
 POWELL| Reached  88% of maximal function calls                    16.9290063449
 POWELL| Reached  90% of maximal function calls                    16.9290057087
 POWELL| Reached  92% of maximal function calls                    16.9290057087
 POWELL| Reached  94% of maximal function calls                    16.9290057087
 POWELL| Reached  96% of maximal function calls                    16.9290057087
 POWELL| Reached  98% of maximal function calls                    16.9290045191
 POWELL| Reached 100% of maximal function calls                    16.9290045191
 POWELL| Reached 100% of maximal function calls                    16.9290045191
 POWELL| Exceeding maximum number of steps
 POWELL| Reached 100% of maximal function calls                    16.9290045191
 POWELL| RMS average of variables                                   0.0000944420
 POWELL| Start optimization  10 of total 100               rhobeg =   0.00033350
 POWELL| Inital value of function                                  16.9290045191
 POWELL| Reached   6% of maximal function calls                    16.9290045191
 POWELL| Reached   8% of maximal function calls                    16.9290045191
 POWELL| Reached  10% of maximal function calls                    16.9290045191
 POWELL| Reached  12% of maximal function calls                    16.9290045191
 POWELL| Reached  14% of maximal function calls                    16.9290045191
 POWELL| Reached  16% of maximal function calls                    16.9290045191
 POWELL| Reached  18% of maximal function calls                    16.9290045191
 POWELL| Reached  20% of maximal function calls                    16.9290045191
 POWELL| Reached  22% of maximal function calls                    16.9290045191
 POWELL| Reached  24% of maximal function calls                    16.9290045191
 POWELL| Reached  26% of maximal function calls                    16.9290045191
 POWELL| Reached  28% of maximal function calls                    16.9290045191
 POWELL| Reached  30% of maximal function calls                    16.9290045191
 POWELL| Reached  32% of maximal function calls                    16.9290045191
 POWELL| Reached  34% of maximal function calls                    16.9080466524
 POWELL| Reached  36% of maximal function calls                    16.9080466524
 POWELL| Reached  38% of maximal function calls                    16.9080466524
 POWELL| Reached  40% of maximal function calls                    16.9080466524
 POWELL| Reached  42% of maximal function calls                    16.9080466524
 POWELL| Reached  44% of maximal function calls                    16.9080466524
 POWELL| Reached  46% of maximal function calls                    16.9080466524
 POWELL| Reached  48% of maximal function calls                    16.9080466524
 POWELL| Reached  50% of maximal function calls                    16.9080466524
 POWELL| Reached  52% of maximal function calls                    16.9080466524
 POWELL| Reached  54% of maximal function calls                    16.9080466524
 POWELL| Reached  56% of maximal function calls                    16.9080466524
 POWELL| Reached  57% of maximal function calls                    16.9066817183
 POWELL| Reached  60% of maximal function calls                    16.9066817183
 POWELL| Reached  62% of maximal function calls                    16.9023342396
 POWELL| Reached  64% of maximal function calls                    16.9020014403
 POWELL| Reached  66% of maximal function calls                    16.9020014403
 POWELL| Reached  68% of maximal function calls                    16.9020014403
 POWELL| Reached  70% of maximal function calls                    16.9018338159
 POWELL| Reached  72% of maximal function calls                    16.9016988087
 POWELL| Reached  74% of maximal function calls                    16.9016950264
 POWELL| Reached  76% of maximal function calls                    16.9016923020
 POWELL| Reached  78% of maximal function calls                    16.9016923020
 POWELL| Reached  80% of maximal function calls                    16.9016476093
 POWELL| Reached  82% of maximal function calls                    16.9016359585
 POWELL| Reached  84% of maximal function calls                    16.9016350359
 POWELL| Reached  86% of maximal function calls                    16.9016350359
 POWELL| Reached  88% of maximal function calls                    16.9016348759
 POWELL| Reached  90% of maximal function calls                    16.9016348759
 POWELL| Reached  92% of maximal function calls                    16.9016342554
 POWELL| Reached  94% of maximal function calls                    16.9016342554
 POWELL| Reached  96% of maximal function calls                    16.9016341306
 POWELL| Reached  98% of maximal function calls                    16.9016341306
 POWELL| Reached 100% of maximal function calls                    16.9016341306
 POWELL| Reached 100% of maximal function calls                    16.9016341306
 POWELL| Exceeding maximum number of steps
 POWELL| Reached 100% of maximal function calls                    16.9016341306
 POWELL| RMS average of variables                                   0.0001030439
 POWELL| Start optimization  11 of total 100               rhobeg =   0.00032683
 POWELL| Inital value of function                                  16.9016341306
 POWELL| Reached   6% of maximal function calls                    16.9016341306
 POWELL| Reached   8% of maximal function calls                    16.9016341306
 POWELL| Reached  10% of maximal function calls                    16.9016341306
 POWELL| Reached  12% of maximal function calls                    16.9016341306
 POWELL| Reached  14% of maximal function calls                    16.9016341306
 POWELL| Reached  16% of maximal function calls                    16.9016341306
 POWELL| Reached  18% of maximal function calls                    16.9016341306
 POWELL| Reached  20% of maximal function calls                    16.9016341306
 POWELL| Reached  22% of maximal function calls                    16.9016341306
 POWELL| Reached  24% of maximal function calls                    16.9016341306
 POWELL| Reached  26% of maximal function calls                    16.9016341306
 POWELL| Reached  28% of maximal function calls                    16.9016341306
 POWELL| Reached  30% of maximal function calls                    16.9016341306
 POWELL| Reached  32% of maximal function calls                    16.9016341306
 POWELL| Reached  34% of maximal function calls                    16.8908054174
 POWELL| Reached  36% of maximal function calls                    16.8908054174
 POWELL| Reached  38% of maximal function calls                    16.8908054174
 POWELL| Reached  40% of maximal function calls                    16.8908054174
 POWELL| Reached  42% of maximal function calls                    16.8908054174
 POWELL| Reached  44% of maximal function calls                    16.8908054174
 POWELL| Reached  46% of maximal function calls                    16.8908054174
 POWELL| Reached  48% of maximal function calls                    16.8908054174
 POWELL| Reached  50% of maximal function calls                    16.8908054174
 POWELL| Reached  52% of maximal function calls                    16.8908054174
 POWELL| Reached  54% of maximal function calls                    16.8908054174
 POWELL| Reached  56% of maximal function calls                    16.8908054174
 POWELL| Reached  57% of maximal function calls                    16.8904247252
 POWELL| Reached  60% of maximal function calls                    16.8904247252
 POWELL| Reached  62% of maximal function calls                    16.8828150416
 POWELL| Reached  64% of maximal function calls                    16.8823971483
 POWELL| Reached  66% of maximal function calls                    16.8823971483
 POWELL| Reached  68% of maximal function calls                    16.8823971483
 POWELL| Reached  70% of maximal function calls                    16.8823971483
 POWELL| Reached  72% of maximal function calls                    16.8823971483
 POWELL| Reached  74% of maximal function calls                    16.8823971483
 POWELL| Reached  76% of maximal function calls                    16.8823971483
 POWELL| Reached  78% of maximal function calls                    16.8822797856
 POWELL| Reached  80% of maximal function calls                    16.8822797856
 POWELL| Reached  82% of maximal function calls                    16.8822797856
 POWELL| Reached  84% of maximal function calls                    16.8822797856
 POWELL| Reached  86% of maximal function calls                    16.8822797856
 POWELL| Reached  88% of maximal function calls                    16.8822797856
 POWELL| Reached  90% of maximal function calls                    16.8819166080
 POWELL| Reached  92% of maximal function calls                    16.8819166080
 POWELL| Reached  94% of maximal function calls                    16.8818543547
 POWELL| Reached  96% of maximal function calls                    16.8818096436
 POWELL| Reached  98% of maximal function calls                    16.8818039582
 POWELL| Reached 100% of maximal function calls                    16.8816880697
 POWELL| Reached 100% of maximal function calls                    16.8816880697
 POWELL| Exceeding maximum number of steps
 POWELL| Reached 100% of maximal function calls                    16.8816880697
 POWELL| RMS average of variables                                   0.0001010115
 POWELL| Start optimization  12 of total 100               rhobeg =   0.00032029
 POWELL| Inital value of function                                  16.8816880697
 POWELL| Reached   6% of maximal function calls                    16.8816880697
 POWELL| Reached   8% of maximal function calls                    16.8816880697
 POWELL| Reached  10% of maximal function calls                    16.8816880697
 POWELL| Reached  12% of maximal function calls                    16.8816880697
 POWELL| Reached  14% of maximal function calls                    16.8816880697
 POWELL| Reached  16% of maximal function calls                    16.8816880697
 POWELL| Reached  18% of maximal function calls                    16.8816880697
 POWELL| Reached  20% of maximal function calls                    16.8816880697
 POWELL| Reached  22% of maximal function calls                    16.8816880697
 POWELL| Reached  24% of maximal function calls                    16.8816880697
 POWELL| Reached  26% of maximal function calls                    16.8816880697
 POWELL| Reached  28% of maximal function calls                    16.8816880697
 POWELL| Reached  30% of maximal function calls                    16.8816880697
 POWELL| Reached  32% of maximal function calls                    16.8816880697
 POWELL| Reached  34% of maximal function calls                    16.8800564457
 POWELL| Reached  36% of maximal function calls                    16.8800564457
 POWELL| Reached  38% of maximal function calls                    16.8800564457
 POWELL| Reached  40% of maximal function calls                    16.8800564457
 POWELL| Reached  42% of maximal function calls                    16.8800564457
 POWELL| Reached  44% of maximal function calls                    16.8747603497
 POWELL| Reached  46% of maximal function calls                    16.8747603497
 POWELL| Reached  48% of maximal function calls                    16.8747603497
 POWELL| Reached  50% of maximal function calls                    16.8747603497
 POWELL| Reached  52% of maximal function calls                    16.8747603497
 POWELL| Reached  54% of maximal function calls                    16.8747603497
 POWELL| Reached  56% of maximal function calls                    16.8747603497
 POWELL| Reached  57% of maximal function calls                    16.8747603497
 POWELL| Reached  60% of maximal function calls                    16.8747603497
 POWELL| Reached  62% of maximal function calls                    16.8747603497
 POWELL| Reached  64% of maximal function calls                    16.8747603497
 POWELL| Reached  66% of maximal function calls                    16.8744965767
 POWELL| Reached  68% of maximal function calls                    16.8744965767
 POWELL| Reached  70% of maximal function calls                    16.8744633319
 POWELL| Reached  72% of maximal function calls                    16.8744580028
 POWELL| Reached  74% of maximal function calls                    16.8722152982
 POWELL| Reached  76% of maximal function calls                    16.8721048934
 POWELL| Reached  78% of maximal function calls                    16.8720723799
 POWELL| Reached  80% of maximal function calls                    16.8720723799
 POWELL| Reached  82% of maximal function calls                    16.8720723799
 POWELL| Reached  84% of maximal function calls                    16.8720723799
 POWELL| Reached  86% of maximal function calls                    16.8720705494
 POWELL| Reached  88% of maximal function calls                    16.8720655175
 POWELL| Reached  90% of maximal function calls                    16.8720546728
 POWELL| Reached  92% of maximal function calls                    16.8720465528
 POWELL| Reached  94% of maximal function calls                    16.8720465528
 POWELL| Reached  96% of maximal function calls                    16.8720465528
 POWELL| Reached  98% of maximal function calls                    16.8720342103
 POWELL| Reached 100% of maximal function calls                    16.8720342103
 POWELL| Reached 100% of maximal function calls                    16.8720320603
 POWELL| Exceeding maximum number of steps
 POWELL| Reached 100% of maximal function calls                    16.8720320603
 POWELL| RMS average of variables                                   0.0000889031
 POWELL| Start optimization  13 of total 100               rhobeg =   0.00031389
 POWELL| Inital value of function                                  16.8720320603
 POWELL| Reached   6% of maximal function calls                    16.8720320603
 POWELL| Reached   8% of maximal function calls                    16.8720320603
 POWELL| Reached  10% of maximal function calls                    16.8720320603
 POWELL| Reached  12% of maximal function calls                    16.8720320603
 POWELL| Reached  14% of maximal function calls                    16.8720320603
 POWELL| Reached  16% of maximal function calls                    16.8720320603
 POWELL| Reached  18% of maximal function calls                    16.8720320603
 POWELL| Reached  20% of maximal function calls                    16.8720320603
 POWELL| Reached  22% of maximal function calls                    16.8098533968
 POWELL| Reached  24% of maximal function calls                    16.8098533968
 POWELL| Reached  26% of maximal function calls                    16.8098533968
 POWELL| Reached  28% of maximal function calls                    16.8098533968
 POWELL| Reached  30% of maximal function calls                    16.8098533968
 POWELL| Reached  32% of maximal function calls                    16.8098533968
 POWELL| Reached  34% of maximal function calls                    16.8098533968
 POWELL| Reached  36% of maximal function calls                    16.8098533968
 POWELL| Reached  38% of maximal function calls                    16.8098533968
 POWELL| Reached  40% of maximal function calls                    16.8098533968
 POWELL| Reached  42% of maximal function calls                    16.8098533968
 POWELL| Reached  44% of maximal function calls                    16.8098533968
 POWELL| Reached  46% of maximal function calls                    16.8098533968
 POWELL| Reached  48% of maximal function calls                    16.8098533968
 POWELL| Reached  50% of maximal function calls                    16.8098533968
 POWELL| Reached  52% of maximal function calls                    16.8098533968
 POWELL| Reached  54% of maximal function calls                    16.8098533968
 POWELL| Reached  56% of maximal function calls                    16.8098533968
 POWELL| Reached  57% of maximal function calls                    16.8098533968
 POWELL| Reached  60% of maximal function calls                    16.7711374316
 POWELL| Reached  62% of maximal function calls                    16.7638894316
 POWELL| Reached  64% of maximal function calls                    16.7638894316
 POWELL| Reached  66% of maximal function calls                    16.7632466970
 POWELL| Reached  68% of maximal function calls                    16.7629541387
 POWELL| Reached  70% of maximal function calls                    16.7629541387
 POWELL| Reached  72% of maximal function calls                    16.7629541387
 POWELL| Reached  74% of maximal function calls                    16.7629541387
 POWELL| Reached  76% of maximal function calls                    16.7629541387
 POWELL| Reached  78% of maximal function calls                    16.7629541387
 POWELL| Reached  80% of maximal function calls                    16.7629364887
 POWELL| Reached  82% of maximal function calls                    16.7629364887
 POWELL| Reached  84% of maximal function calls                    16.7629318974
 POWELL| Reached  86% of maximal function calls                    16.7629318974
 POWELL| Reached  88% of maximal function calls                    16.7629318974
 POWELL| Reached  90% of maximal function calls                    16.7629318974
 POWELL| Reached  92% of maximal function calls                    16.7629318974
 POWELL| Reached  94% of maximal function calls                    16.7629318974
 POWELL| Reached  96% of maximal function calls                    16.7629317986
 POWELL| Reached  98% of maximal function calls                    16.7629317986
 POWELL| Reached 100% of maximal function calls                    16.7628087679
 POWELL| Reached 100% of maximal function calls                    16.7627940754
 POWELL| Exceeding maximum number of steps
 POWELL| Reached 100% of maximal function calls                    16.7627940754
 POWELL| RMS average of variables                                   0.0000946070
 POWELL| Start optimization  14 of total 100               rhobeg =   0.00030761
 POWELL| Inital value of function                                  16.7627940754
 POWELL| Reached   6% of maximal function calls                    16.7627940754
 POWELL| Reached   8% of maximal function calls                    16.7627940754
 POWELL| Reached  10% of maximal function calls                    16.7627940754
 POWELL| Reached  12% of maximal function calls                    16.7627940754
 POWELL| Reached  14% of maximal function calls                    16.7627940754
 POWELL| Reached  16% of maximal function calls                    16.7627940754
 POWELL| Reached  18% of maximal function calls                    16.7627940754
 POWELL| Reached  20% of maximal function calls                    16.7627940754
 POWELL| Reached  22% of maximal function calls                    16.7627940754
 POWELL| Reached  24% of maximal function calls                    16.7627940754
 POWELL| Reached  26% of maximal function calls                    16.7627940754
 POWELL| Reached  28% of maximal function calls                    16.7627940754
 POWELL| Reached  30% of maximal function calls                    16.7627940754
 POWELL| Reached  32% of maximal function calls                    16.7627940754
 POWELL| Reached  34% of maximal function calls                    16.7621496513
 POWELL| Reached  36% of maximal function calls                    16.7621496513
 POWELL| Reached  38% of maximal function calls                    16.7621496513
 POWELL| Reached  40% of maximal function calls                    16.7621496513
 POWELL| Reached  42% of maximal function calls                    16.7621496513
 POWELL| Reached  44% of maximal function calls                    16.7048459938
 POWELL| Reached  46% of maximal function calls                    16.7048459938
 POWELL| Reached  48% of maximal function calls                    16.7048459938
 POWELL| Reached  50% of maximal function calls                    16.7048459938
 POWELL| Reached  52% of maximal function calls                    16.7048459938
 POWELL| Reached  54% of maximal function calls                    16.7048459938
 POWELL| Reached  56% of maximal function calls                    16.7048459938
 POWELL| Reached  57% of maximal function calls                    16.7031615283
 POWELL| Reached  60% of maximal function calls                    16.7031615283
 POWELL| Reached  62% of maximal function calls                    16.7031615283
 POWELL| Reached  64% of maximal function calls                    16.7031615283
 POWELL| Reached  66% of maximal function calls                    16.7031615283
 POWELL| Reached  68% of maximal function calls                    16.7027833840
 POWELL| Reached  70% of maximal function calls                    16.7027531458
 POWELL| Reached  72% of maximal function calls                    16.7011371829
 POWELL| Reached  74% of maximal function calls                    16.7000288409
 POWELL| Reached  76% of maximal function calls                    16.7000137799
 POWELL| Reached  78% of maximal function calls                    16.7000013390
 POWELL| Reached  80% of maximal function calls                    16.6999757402
 POWELL| Reached  82% of maximal function calls                    16.6999757402
 POWELL| Reached  84% of maximal function calls                    16.6999757402
 POWELL| Reached  86% of maximal function calls                    16.6999757402
 POWELL| Reached  88% of maximal function calls                    16.6999740378
 POWELL| Reached  90% of maximal function calls                    16.6999740378
 POWELL| Reached  92% of maximal function calls                    16.6999701610
 POWELL| Reached  94% of maximal function calls                    16.6999701610
 POWELL| Reached  96% of maximal function calls                    16.6999680180
 POWELL| Reached  98% of maximal function calls                    16.6999680180
 POWELL| Reached 100% of maximal function calls                    16.6999312717
 POWELL| Reached 100% of maximal function calls                    16.6999165645
 POWELL| Exceeding maximum number of steps
 POWELL| Reached 100% of maximal function calls                    16.6999165645
 POWELL| RMS average of variables                                   0.0000939994
 POWELL| Start optimization  15 of total 100               rhobeg =   0.00030146
 POWELL| Inital value of function                                  16.6999165645
 POWELL| Reached   6% of maximal function calls                    16.6999165645
 POWELL| Reached   8% of maximal function calls                    16.6999165645
 POWELL| Reached  10% of maximal function calls                    16.6999165645
 POWELL| Reached  12% of maximal function calls                    16.6999165645
 POWELL| Reached  14% of maximal function calls                    16.6999165645
 POWELL| Reached  16% of maximal function calls                    16.6999165645
 POWELL| Reached  18% of maximal function calls                    16.6999165645
 POWELL| Reached  20% of maximal function calls                    16.6999165645
 POWELL| Reached  22% of maximal function calls                    16.6999165645
 POWELL| Reached  24% of maximal function calls                    16.6964925297
 POWELL| Reached  26% of maximal function calls                    16.6964925297
 POWELL| Reached  28% of maximal function calls                    16.6964925297
 POWELL| Reached  30% of maximal function calls                    16.6964925297
 POWELL| Reached  32% of maximal function calls                    16.6964925297
 POWELL| Reached  34% of maximal function calls                    16.6748497484
 POWELL| Reached  36% of maximal function calls                    16.6748497484
 POWELL| Reached  38% of maximal function calls                    16.6748497484
 POWELL| Reached  40% of maximal function calls                    16.6748497484
 POWELL| Reached  42% of maximal function calls                    16.6748497484
 POWELL| Reached  44% of maximal function calls                    16.6748497484
 POWELL| Reached  46% of maximal function calls                    16.6748497484
 POWELL| Reached  48% of maximal function calls                    16.6748497484
 POWELL| Reached  50% of maximal function calls                    16.6748497484
 POWELL| Reached  52% of maximal function calls                    16.6748497484
 POWELL| Reached  54% of maximal function calls                    16.6748497484
 POWELL| Reached  56% of maximal function calls                    16.6748497484
 POWELL| Reached  57% of maximal function calls                    16.6729396678
 POWELL| Reached  60% of maximal function calls                    16.6729396678
 POWELL| Reached  62% of maximal function calls                    16.6717240149
 POWELL| Reached  64% of maximal function calls                    16.6715050885
 POWELL| Reached  66% of maximal function calls                    16.6715050885
 POWELL| Reached  68% of maximal function calls                    16.6713978268
 POWELL| Reached  70% of maximal function calls                    16.6713729490
 POWELL| Reached  72% of maximal function calls                    16.6708097329
 POWELL| Reached  74% of maximal function calls                    16.6704580891
 POWELL| Reached  76% of maximal function calls                    16.6704580891
 POWELL| Reached  78% of maximal function calls                    16.6704482082
 POWELL| Reached  80% of maximal function calls                    16.6704396724
 POWELL| Reached  82% of maximal function calls                    16.6704308969
 POWELL| Reached  84% of maximal function calls                    16.6704308969
 POWELL| Reached  86% of maximal function calls                    16.6704308969
 POWELL| Reached  88% of maximal function calls                    16.6704308969
 POWELL| Reached  90% of maximal function calls                    16.6704292601
 POWELL| Reached  92% of maximal function calls                    16.6704291771
 POWELL| Reached  94% of maximal function calls                    16.6704289394
 POWELL| Reached  96% of maximal function calls                    16.6704289394
 POWELL| Reached  98% of maximal function calls                    16.6704254707
 POWELL| Reached 100% of maximal function calls                    16.6704233168
 POWELL| Reached 100% of maximal function calls                    16.6704233168
 POWELL| Exceeding maximum number of steps
 POWELL| Reached 100% of maximal function calls                    16.6704233168
 POWELL| RMS average of variables                                   0.0000932430
 POWELL| Start optimization  16 of total 100               rhobeg =   0.00029543
 POWELL| Inital value of function                                  16.6704233168
 POWELL| Reached   6% of maximal function calls                    16.6704233168
 POWELL| Reached   8% of maximal function calls                    16.6704233168
 POWELL| Reached  10% of maximal function calls                    16.6704233168
 POWELL| Reached  12% of maximal function calls                    16.6704233168
 POWELL| Reached  14% of maximal function calls                    16.6704233168
 POWELL| Reached  16% of maximal function calls                    16.6704233168
 POWELL| Reached  18% of maximal function calls                    16.6704233168
 POWELL| Reached  20% of maximal function calls                    16.6704233168
 POWELL| Reached  22% of maximal function calls                    16.6704233168
 POWELL| Reached  24% of maximal function calls                    16.6704233168
 POWELL| Reached  26% of maximal function calls                    16.6704233168
 POWELL| Reached  28% of maximal function calls                    16.6704233168
 POWELL| Reached  30% of maximal function calls                    16.6704233168
 POWELL| Reached  32% of maximal function calls                    16.6704233168
 POWELL| Reached  34% of maximal function calls                    16.6557285702
 POWELL| Reached  36% of maximal function calls                    16.6557285702
 POWELL| Reached  38% of maximal function calls                    16.6557285702
 POWELL| Reached  40% of maximal function calls                    16.6557285702
 POWELL| Reached  42% of maximal function calls                    16.6557285702
 POWELL| Reached  44% of maximal function calls                    16.6557285702
 POWELL| Reached  46% of maximal function calls                    16.6557285702
 POWELL| Reached  48% of maximal function calls                    16.6557285702
 POWELL| Reached  50% of maximal function calls                    16.6557285702
 POWELL| Reached  52% of maximal function calls                    16.6557285702
 POWELL| Reached  54% of maximal function calls                    16.6557285702
 POWELL| Reached  56% of maximal function calls                    16.6557285702
 POWELL| Reached  57% of maximal function calls                    16.6548323079
 POWELL| Reached  60% of maximal function calls                    16.6548323079
[...]
 POWELL| RMS average of variables                                   0.0000162034
 POWELL| Start optimization  98 of total 100               rhobeg =   0.00005636
 POWELL| Inital value of function                                  13.3447956336
 POWELL| Reached   6% of maximal function calls                    13.3447956336
 POWELL| Reached   8% of maximal function calls                    13.3447956336
 POWELL| Reached  10% of maximal function calls                    13.3388734443
 POWELL| Reached  12% of maximal function calls                    13.3388734443
 POWELL| Reached  14% of maximal function calls                    13.3388734443
 POWELL| Reached  16% of maximal function calls                    13.3388734443
 POWELL| Reached  18% of maximal function calls                    13.3388734443
 POWELL| Reached  20% of maximal function calls                    13.3388734443
 POWELL| Reached  22% of maximal function calls                    13.3247679465
 POWELL| Reached  24% of maximal function calls                    13.3247679465
 POWELL| Reached  26% of maximal function calls                    13.3247679465
 POWELL| Reached  28% of maximal function calls                    13.3247679465
 POWELL| Reached  30% of maximal function calls                    13.3247679465
 POWELL| Reached  32% of maximal function calls                    13.3247679465
 POWELL| Reached  34% of maximal function calls                    13.3247679465
 POWELL| Reached  36% of maximal function calls                    13.3247679465
 POWELL| Reached  38% of maximal function calls                    13.3247679465
 POWELL| Reached  40% of maximal function calls                    13.3247679465
 POWELL| Reached  42% of maximal function calls                    13.3247679465
 POWELL| Reached  44% of maximal function calls                    13.3247679465
 POWELL| Reached  46% of maximal function calls                    13.3247679465
 POWELL| Reached  48% of maximal function calls                    13.3247679465
 POWELL| Reached  50% of maximal function calls                    13.3247679465
 POWELL| Reached  52% of maximal function calls                    13.3247679465
 POWELL| Reached  54% of maximal function calls                    13.3247679465
 POWELL| Reached  56% of maximal function calls                    13.3247679465
 POWELL| Reached  57% of maximal function calls                    13.3235500607
 POWELL| Reached  60% of maximal function calls                    13.3211589905
 POWELL| Reached  62% of maximal function calls                    13.3189687285
 POWELL| Reached  64% of maximal function calls                    13.3189687285
 POWELL| Reached  66% of maximal function calls                    13.3188538982
 POWELL| Reached  68% of maximal function calls                    13.3186513918
 POWELL| Reached  70% of maximal function calls                    13.3186477090
 POWELL| Reached  72% of maximal function calls                    13.3186477090
 POWELL| Reached  74% of maximal function calls                    13.3186477090
 POWELL| Reached  76% of maximal function calls                    13.3186477090
 POWELL| Reached  78% of maximal function calls                    13.3186477090
 POWELL| Reached  80% of maximal function calls                    13.3186477090
 POWELL| Reached  82% of maximal function calls                    13.3186477090
 POWELL| Reached  84% of maximal function calls                    13.3186477090
 POWELL| Reached  86% of maximal function calls                    13.3186477090
 POWELL| Reached  88% of maximal function calls                    13.3186477090
 POWELL| Reached  90% of maximal function calls                    13.3186473408
 POWELL| Reached  92% of maximal function calls                    13.3186473408
 POWELL| Reached  94% of maximal function calls                    13.3186473408
 POWELL| Reached  96% of maximal function calls                    13.3186416361
 POWELL| Reached  98% of maximal function calls                    13.3186416361
 POWELL| Reached 100% of maximal function calls                    13.3186414939
 POWELL| Reached 100% of maximal function calls                    13.3186409557
 POWELL| Exceeding maximum number of steps
 POWELL| Reached 100% of maximal function calls                    13.3186409557
 POWELL| RMS average of variables                                   0.0000185643
 POWELL| Start optimization  99 of total 100               rhobeg =   0.00005524
 POWELL| Inital value of function                                  13.3186409557
 POWELL| Reached   6% of maximal function calls                    13.3186409557
 POWELL| Reached   8% of maximal function calls                    13.3186409557
 POWELL| Reached  10% of maximal function calls                    13.3096941168
 POWELL| Reached  12% of maximal function calls                    13.3096941168
 POWELL| Reached  14% of maximal function calls                    13.3096941168
 POWELL| Reached  16% of maximal function calls                    13.3096941168
 POWELL| Reached  18% of maximal function calls                    13.3096941168
 POWELL| Reached  20% of maximal function calls                    13.3096941168
 POWELL| Reached  22% of maximal function calls                    13.3096941168
 POWELL| Reached  24% of maximal function calls                    13.3096941168
 POWELL| Reached  26% of maximal function calls                    13.3096941168
 POWELL| Reached  28% of maximal function calls                    13.3096941168
 POWELL| Reached  30% of maximal function calls                    13.3096941168
 POWELL| Reached  32% of maximal function calls                    13.3096941168
 POWELL| Reached  34% of maximal function calls                    13.3096941168
 POWELL| Reached  36% of maximal function calls                    13.3096941168
 POWELL| Reached  38% of maximal function calls                    13.2872852245
 POWELL| Reached  40% of maximal function calls                    13.2872852245
 POWELL| Reached  42% of maximal function calls                    13.2872852245
 POWELL| Reached  44% of maximal function calls                    13.2872852245
 POWELL| Reached  46% of maximal function calls                    13.2872852245
 POWELL| Reached  48% of maximal function calls                    13.2872852245
 POWELL| Reached  50% of maximal function calls                    13.2872852245
 POWELL| Reached  52% of maximal function calls                    13.2872852245
 POWELL| Reached  54% of maximal function calls                    13.2872852245
 POWELL| Reached  56% of maximal function calls                    13.2872852245
 POWELL| Reached  57% of maximal function calls                    13.2872852245
 POWELL| Reached  60% of maximal function calls                    13.2872852245
 POWELL| Reached  62% of maximal function calls                    13.2872852245
 POWELL| Reached  64% of maximal function calls                    13.2872852245
 POWELL| Reached  66% of maximal function calls                    13.2872006007
 POWELL| Reached  68% of maximal function calls                    13.2872006007
 POWELL| Reached  70% of maximal function calls                    13.2868297633
 POWELL| Reached  72% of maximal function calls                    13.2865645537
 POWELL| Reached  74% of maximal function calls                    13.2865587573
 POWELL| Reached  76% of maximal function calls                    13.2865587573
 POWELL| Reached  78% of maximal function calls                    13.2865587573
 POWELL| Reached  80% of maximal function calls                    13.2865587573
 POWELL| Reached  82% of maximal function calls                    13.2865585627
 POWELL| Reached  84% of maximal function calls                    13.2865585627
 POWELL| Reached  86% of maximal function calls                    13.2865585627
 POWELL| Reached  88% of maximal function calls                    13.2865585627
 POWELL| Reached  90% of maximal function calls                    13.2865549145
 POWELL| Reached  92% of maximal function calls                    13.2865549145
 POWELL| Reached  94% of maximal function calls                    13.2865549145
 POWELL| Reached  96% of maximal function calls                    13.2865549145
 POWELL| Reached  98% of maximal function calls                    13.2865533982
 POWELL| Reached 100% of maximal function calls                    13.2865533982
 POWELL| Reached 100% of maximal function calls                    13.2865448664
 POWELL| Exceeding maximum number of steps
 POWELL| Reached 100% of maximal function calls                    13.2865448664
 POWELL| RMS average of variables                                   0.0000153314
 POWELL| Start optimization 100 of total 100               rhobeg =   0.00005413
 POWELL| Inital value of function                                  13.2865448664
 POWELL| Reached   6% of maximal function calls                    13.2865448664
 POWELL| Reached   8% of maximal function calls                    13.2865448664
 POWELL| Reached  10% of maximal function calls                    13.2865448664
 POWELL| Reached  12% of maximal function calls                    13.2865448664
 POWELL| Reached  14% of maximal function calls                    13.2797285263
 POWELL| Reached  16% of maximal function calls                    13.2797285263
 POWELL| Reached  18% of maximal function calls                    13.2797285263
 POWELL| Reached  20% of maximal function calls                    13.2797285263
 POWELL| Reached  22% of maximal function calls                    13.2458121174
 POWELL| Reached  24% of maximal function calls                    13.2458121174
 POWELL| Reached  26% of maximal function calls                    13.2458121174
 POWELL| Reached  28% of maximal function calls                    13.2458121174
 POWELL| Reached  30% of maximal function calls                    13.2458121174
 POWELL| Reached  32% of maximal function calls                    13.2458121174
 POWELL| Reached  34% of maximal function calls                    13.2458121174
 POWELL| Reached  36% of maximal function calls                    13.2458121174
 POWELL| Reached  38% of maximal function calls                    13.2458121174
 POWELL| Reached  40% of maximal function calls                    13.2458121174
 POWELL| Reached  42% of maximal function calls                    13.2458121174
 POWELL| Reached  44% of maximal function calls                    13.2458121174
 POWELL| Reached  46% of maximal function calls                    13.2458121174
 POWELL| Reached  48% of maximal function calls                    13.2458121174
 POWELL| Reached  50% of maximal function calls                    13.2458121174
 POWELL| Reached  52% of maximal function calls                    13.2458121174
 POWELL| Reached  54% of maximal function calls                    13.2458121174
 POWELL| Reached  56% of maximal function calls                    13.2458121174
 POWELL| Reached  57% of maximal function calls                    13.2424626596
 POWELL| Reached  60% of maximal function calls                    13.2424626596
 POWELL| Reached  62% of maximal function calls                    13.2424626596
 POWELL| Reached  64% of maximal function calls                    13.2424503370
 POWELL| Reached  66% of maximal function calls                    13.2422147492
 POWELL| Reached  68% of maximal function calls                    13.2422147492
 POWELL| Reached  70% of maximal function calls                    13.2422114388
 POWELL| Reached  72% of maximal function calls                    13.2421862418
 POWELL| Reached  74% of maximal function calls                    13.2421673815
 POWELL| Reached  76% of maximal function calls                    13.2421522608
 POWELL| Reached  78% of maximal function calls                    13.2421390971
 POWELL| Reached  80% of maximal function calls                    13.2421390971
 POWELL| Reached  82% of maximal function calls                    13.2421390971
 POWELL| Reached  84% of maximal function calls                    13.2421390971
 POWELL| Reached  86% of maximal function calls                    13.2421390971
 POWELL| Reached  88% of maximal function calls                    13.2421390971
 POWELL| Reached  90% of maximal function calls                    13.2421390971
 POWELL| Reached  92% of maximal function calls                    13.2421390971
 POWELL| Reached  94% of maximal function calls                    13.2421390971
 POWELL| Reached  96% of maximal function calls                    13.2421382549
 POWELL| Reached  98% of maximal function calls                    13.2421382549
 POWELL| Reached 100% of maximal function calls                    13.2421379967
 POWELL| Reached 100% of maximal function calls                    13.2421379967
 POWELL| Exceeding maximum number of steps
 POWELL| Reached 100% of maximal function calls                    13.2421379967
 POWELL| RMS average of variables                                   0.0000166285
 POWELL| Number of function evaluations                                       50
 POWELL| Final value of function                                   13.2421379967

 POWELL| Final errors of target values

 Reference configuration          1               Method number                1
    L    N    Occupation      Eigenvalue [eV]           dE [eV]          dCharge 
    0    1          2.00       -55.0089303877 SC  -0.025723[18]    -0.000032[ X]
    0    2          2.00        -4.1555695304 VA   0.003308[79]     0.001358[ 0]
    0    3          0.00         1.2525524800 U1  -0.003833[ 0]     0.000948[ X]
    0    4          0.00         7.4639491961 U2  -0.019311[ X]     0.001899[ 0]
    1    1          6.00       -33.5679695791 SC   0.010254[ 2]     0.000042[ X]
    1    2          0.00        -1.3837869576 U1   0.002643[ X]    -0.000080[ X]
    1    3          0.00         2.8964988412 U2   0.001376[ X]     0.000007[ 0]
    2    1          1.00        -3.2074094900 VA   0.000686[ 1]     0.000694[ 0]
    2    2          0.00         1.6743603768 U1   0.000284[ X]    -0.000129[ X]
    2    3          0.00         6.4467314769 U2   0.002250[ X]    -0.000520[ 0]
    3    1          0.00         3.3710646143 U1   0.001108[ X]    -0.000027[ X]
    s-states N=    1                   Wavefunction at r=0:        -0.013946[ 0]
    s-states N=    2                   Wavefunction at r=0:        -0.110753[ 0]
    s-states N=    3                   Wavefunction at r=0:        -0.082395[ 0]
    s-states N=    4                   Wavefunction at r=0:        -0.128865[ 0]

 Number of target values reached:                                      12 of  19



                             NORMAL TERMINATION OF     
                                                       
                           ****  ******  ****   ****   
                          **  ** ****** **  ** ******  
                          ******   **   **  ** **  **  
                          **  **   **    ****  **  **  


 -------------------------------------------------------------------------------
 -                                                                             -
 -                                DBCSR STATISTICS                             -
 -                                                                             -
 -------------------------------------------------------------------------------
 COUNTER                                    TOTAL       BLAS       SMM       ACC
 flops inhomo. stacks                           0       0.0%      0.0%      0.0%
 flops total                         0.000000E+00       0.0%      0.0%      0.0%
 flops max/rank                      0.000000E+00       0.0%      0.0%      0.0%
 matmuls inhomo. stacks                         0       0.0%      0.0%      0.0%
 matmuls total                                  0       0.0%      0.0%      0.0%
 number of processed stacks                     0       0.0%      0.0%      0.0%
 average stack size                                     0.0       0.0       0.0
 marketing flops                     0.000000E+00
 -------------------------------------------------------------------------------

 MEMORY| Estimated peak process memory [MiB]                                  49

 -------------------------------------------------------------------------------
 -                                                                             -
 -                           R E F E R E N C E S                               -
 -                                                                             -
 -------------------------------------------------------------------------------
 
 CP2K version 7.0 (Development Version), the CP2K developers group (2018).
 CP2K is freely available from https://www.cp2k.org/ .

 Schuett, Ole; Messmer, Peter; Hutter, Juerg; VandeVondele, Joost. 
 Electronic Structure Calculations on Graphics Processing Units, John Wiley & Sons, Ltd, 173-190 (2016). 
 GPU-Accelerated Sparse Matrix-Matrix Multiplication for Linear Scaling Density Functional Theory.
 http://dx.doi.org/10.1002/9781118670712.ch8


 Borstnik, U; VandeVondele, J; Weber, V; Hutter, J. 
 PARALLEL COMPUTING, 40 (5-6), 47-58 (2014). 
 Sparse matrix multiplication: The distributed block-compressed sparse
 row library.
 http://dx.doi.org/10.1016/j.parco.2014.03.012


 Hutter, J; Iannuzzi, M; Schiffmann, F; VandeVondele, J. 
 WILEY INTERDISCIPLINARY REVIEWS-COMPUTATIONAL MOLECULAR SCIENCE, 4 (1), 15-25 (2014). 
 CP2K: atomistic simulations of condensed matter systems.
 http://dx.doi.org/10.1002/wcms.1159


 Frigo, M; Johnson, SG. 
 PROCEEDINGS OF THE IEEE, 93 (2), 216-231 (2005). 
 The design and implementation of FFTW3.
 http://dx.doi.org/10.1109/JPROC.2004.840301


 Perdew, JP; Burke, K; Ernzerhof, M. 
 PHYSICAL REVIEW LETTERS, 77 (18), 3865-3868 (1996). 
 Generalized gradient approximation made simple.
 http://dx.doi.org/10.1103/PhysRevLett.77.3865


 -------------------------------------------------------------------------------
 -                                                                             -
 -                                T I M I N G                                  -
 -                                                                             -
 -------------------------------------------------------------------------------
 SUBROUTINE                       CALLS  ASD         SELF TIME        TOTAL TIME
                                MAXIMUM       AVERAGE  MAXIMUM  AVERAGE  MAXIMUM
 CP2K                                 1  1.0    0.002    0.002 1443.477 1443.477
 atom_code                            1  2.0    0.000    0.000 1443.474 1443.474
 atom_pseudo_opt                      1  3.0    8.991    8.991 1443.474 1443.474
 calculate_atom                    5714  4.0    0.015    0.015 1428.462 1428.462
 calculate_atom_restricted         5714  5.0  503.196  503.196 1428.447 1428.447
 calculate_atom_vxc_lda          252485  6.0  873.953  873.953  925.251  925.251
 xc_functional_eval              252485  7.0    0.589    0.589   51.025   51.025
 pbe_lda_eval                    252485  8.0   50.436   50.436   50.436   50.436
 -------------------------------------------------------------------------------

 The number of warnings for this run is : 0
 
 -------------------------------------------------------------------------------
  **** **** ******  **  PROGRAM ENDED AT                 2018-06-24 20:50:08.783
 ***** ** ***  *** **   PROGRAM RAN ON                                    tcpc01
 **    ****   ******    PROGRAM RAN BY                                    hutter
 ***** **    ** ** **   PROGRAM PROCESS ID                                  2499
  **** **  *******  **  PROGRAM STOPPED IN /data/hutter/pseudo/UZH2018/PBE/Sc/q1
                                           1
