
  **** **** ******  **  PROGRAM STARTED AT               2018-06-24 21:32:34.952
 ***** ** ***  *** **   PROGRAM STARTED ON                                tcpc01
 **    ****   ******    PROGRAM STARTED BY                                hutter
 ***** **    ** ** **   PROGRAM PROCESS ID                                  3311
  **** **  *******  **  PROGRAM STARTED IN /data/hutter/pseudo/UZH2018/PBE/Cu/q1
                                           9

 CP2K| version string:                    CP2K version 7.0 (Development Version)
 CP2K| source code revision number:                                    svn:18485
 CP2K| cp2kflags: libint fftw3 libxc libderiv_max_am1=5 libint_max_am=6 spglib  
 CP2K| is freely available from                            https://www.cp2k.org/
 CP2K| Program compiled at                         Wed Jun 20 10:41:43 CEST 2018
 CP2K| Program compiled on                                                tcpc01
 CP2K| Program compiled for                                                local
 CP2K| Data directory path                        /data/hutter/CURRENT/cp2k/data
 CP2K| Input file name                                                    Cu.inp

 GLOBAL| Method name                                                        ATOM
 GLOBAL| Project name                                                    PROJECT
 GLOBAL| Preferred FFT library                                             FFTW3
 GLOBAL| Preferred diagonalization lib.                                       SL
 GLOBAL| Run type                                                   ENERGY_FORCE
 GLOBAL| All-to-all communication in single precision                          F
 GLOBAL| FFTs using library dependent lengths                                  F
 GLOBAL| Global print level                                               MEDIUM
 GLOBAL| Total number of message passing processes                             1
 GLOBAL| Number of threads for this process                                    1
 GLOBAL| This output is from process                                           0
 GLOBAL| CPU model name :  Intel(R) Xeon(R) CPU           X5570  @ 2.93GHz

 MEMORY| system memory details [Kb]
 MEMORY|                        rank 0           min           max       average
 MEMORY| MemTotal             37009584      37009584      37009584      37009584
 MEMORY| MemFree              32435536      32435536      32435536      32435536
 MEMORY| Buffers                300600        300600        300600        300600
 MEMORY| Cached                2034316       2034316       2034316       2034316
 MEMORY| Slab                   272284        272284        272284        272284
 MEMORY| SReclaimable           203732        203732        203732        203732
 MEMORY| MemLikelyFree        34974184      34974184      34974184      34974184


 *** Fundamental physical constants (SI units) ***

 *** Literature: B. J. Mohr and B. N. Taylor,
 ***             CODATA recommended values of the fundamental physical
 ***             constants: 2006, Web Version 5.1
 ***             http://physics.nist.gov/constants

 Speed of light in vacuum [m/s]                             2.99792458000000E+08
 Magnetic constant or permeability of vacuum [N/A**2]       1.25663706143592E-06
 Electric constant or permittivity of vacuum [F/m]          8.85418781762039E-12
 Planck constant (h) [J*s]                                  6.62606896000000E-34
 Planck constant (h-bar) [J*s]                              1.05457162825177E-34
 Elementary charge [C]                                      1.60217648700000E-19
 Electron mass [kg]                                         9.10938215000000E-31
 Electron g factor [ ]                                     -2.00231930436220E+00
 Proton mass [kg]                                           1.67262163700000E-27
 Fine-structure constant                                    7.29735253760000E-03
 Rydberg constant [1/m]                                     1.09737315685270E+07
 Avogadro constant [1/mol]                                  6.02214179000000E+23
 Boltzmann constant [J/K]                                   1.38065040000000E-23
 Atomic mass unit [kg]                                      1.66053878200000E-27
 Bohr radius [m]                                            5.29177208590000E-11

 *** Conversion factors ***

 [u] -> [a.u.]                                              1.82288848426455E+03
 [Angstrom] -> [Bohr] = [a.u.]                              1.88972613288564E+00
 [a.u.] = [Bohr] -> [Angstrom]                              5.29177208590000E-01
 [a.u.] -> [s]                                              2.41888432650478E-17
 [a.u.] -> [fs]                                             2.41888432650478E-02
 [a.u.] -> [J]                                              4.35974393937059E-18
 [a.u.] -> [N]                                              8.23872205491840E-08
 [a.u.] -> [K]                                              3.15774647902944E+05
 [a.u.] -> [kJ/mol]                                         2.62549961709828E+03
 [a.u.] -> [kcal/mol]                                       6.27509468713739E+02
 [a.u.] -> [Pa]                                             2.94210107994716E+13
 [a.u.] -> [bar]                                            2.94210107994716E+08
 [a.u.] -> [atm]                                            2.90362800883016E+08
 [a.u.] -> [eV]                                             2.72113838565563E+01
 [a.u.] -> [Hz]                                             6.57968392072181E+15
 [a.u.] -> [1/cm] (wave numbers)                            2.19474631370540E+05
 [a.u./Bohr**2] -> [1/cm]                                   5.14048714338585E+03
 
 DBCSR| Multiplication driver                                               BLAS
 DBCSR| Multrec recursion limit                                              512
 DBCSR| Multiplication stack size                                           1000
 DBCSR| Maximum elements for images                                    UNLIMITED
 DBCSR| Multiplicative factor virtual images                                   1
 DBCSR| Multiplication size stacks                                             3



                           ****  ******  ****   ****   
                          **  ** ****** **  ** ******  
                          ******   **   **  ** **  **  
                          **  **   **    ****  **  **  
                                                       
                             University of Zurich      
                                 2009 - 2015           
                                                       
                                 Version 0.0           
                                                                   


 Atomic Energy Calculation             Copper [Cu]           Atomic number:   29


 *******************************************************************************
 ************************** Calculate Reference States *************************
 *******************************************************************************

 METHOD    | Restricted Kohn-Sham Calculation
 METHOD    | Relativistic Calculation using Douglas-Kroll 3rd order
 FUNCTIONAL| ROUTINE=NEW
 FUNCTIONAL| PBE:
 FUNCTIONAL| J.P.Perdew, K.Burke, M.Ernzerhof, Phys. Rev. Letter, vol. 77, n 18,
 FUNCTIONAL|  pp. 3865-3868, (1996){spin unpolarized}                           

 Electronic structure
    Total number of core electrons                                          0.00
    Total number of valence electrons                                      29.00
    Total number of electrons                                              29.00
    Multiplicity                                                   not specified
    S      2.00  2.00  2.00  2.00
    P      6.00  6.00
    D      9.00


 *******************************************************************************
                  Iteration          Convergence                     Energy [au]
 *******************************************************************************
                          1         25.7391                   -1562.231341244007
                          2         8.91103                   -1506.706643364400
                          3         13.2319                   -1618.480852480812
                          4         6.34782                   -1643.009100988676
                          5         1.89957                   -1653.045422304862
                          6        0.887120                   -1654.109966288808
                          7        0.298205                   -1654.469885297240
                          8        0.296205E-01               -1654.500605384716
                          9        0.759949E-02               -1654.501032509145
                         10        0.113290E-03               -1654.501056358868
                         11        0.270073E-05               -1654.501056364424
                         12        0.524480E-06               -1654.501056364427
                         13        0.221468E-06               -1654.501056364416
                         14        0.875577E-07               -1654.501056364424
                         15        0.752625E-07               -1654.501056364423
                         16        0.161263E-07               -1654.501056364423
                         17        0.420616E-06               -1654.501056364425
                         18        0.435621E-07               -1654.501056364423
                         19        0.124359E-06               -1654.501056364418
                         20        0.990400E-07               -1654.501056364429
                         21        0.827944E-07               -1654.501056364434
                         22        0.365875E-07               -1654.501056364430
                         23        0.186777E-06               -1654.501056364423
                         24        0.757048E-07               -1654.501056364424
                         25        0.212135E-07               -1654.501056364433
                         26        0.589256E-07               -1654.501056364421
                         27        0.705343E-07               -1654.501056364433
                         28        0.542425E-07               -1654.501056364424
                         29        0.624854E-07               -1654.501056364437
                         30        0.689621E-07               -1654.501056364424
                         31        0.253106E-07               -1654.501056364438
                         32        0.154925E-07               -1654.501056364427
                         33        0.421622E-07               -1654.501056364420
                         34        0.479674E-07               -1654.501056364431
                         35        0.547566E-08               -1654.501056364430

 Energy components [Hartree]           Total Energy ::        -1654.501056364430
                                        Band Energy ::         -961.444763750268
                                     Kinetic Energy ::         1739.226913819841
                                   Potential Energy ::        -3393.727970184271
                                      Virial (-V/T) ::            1.951285334431
                                        Core Energy ::        -2300.204192745869
                                          XC Energy ::          -67.542052465131
                                     Coulomb Energy ::          713.245188846570
                                        Confinement ::            0.000000064691

 Orbital energies  State     L     Occupation   Energy[a.u.]          Energy[eV]

                       1     0          2.000    -325.151041        -8847.809775
                       2     0          2.000     -39.224341        -1067.348591
                       3     0          2.000      -4.406068         -119.895206
                       4     0          2.000      -0.213405           -5.807039
                       5     0          0.000       0.032811            0.892830
                       6     0          0.000       0.231516            6.299870

                       1     1          6.000     -33.879391         -921.905108
                       2     1          6.000      -2.838544          -77.240722
                       3     1          0.000      -0.041295           -1.123692
                       4     1          0.000       0.101911            2.773134

                       1     2          9.000      -0.349716           -9.516258
                       2     2          0.000       0.080559            2.192127
                       3     2          0.000       0.257615            7.010062

                       1     3          0.000       0.155899            4.242222


 Total Electron Density at R=0:                                     35419.209142

 *******************************************************************************
 ********************* Optimize Pseudopotential Parameters *********************
 *******************************************************************************

 POWELL| Start optimization procedure

 POWELL| Total number of parameters in optimization                           13

 POWELL| Initial errors of target values

 Reference configuration          1               Method number                1
    L    N    Occupation      Eigenvalue [eV]           dE [eV]          dCharge 
    0    1          2.00      -119.9036332929 SC  -0.008428[10]     0.000002[ X]
    0    2          2.00        -5.8057491993 VA   0.001290[83]     0.000636[ 0]
    0    3          0.00         0.8913591625 U1  -0.001470[ X]     0.000262[ X]
    0    4          0.00         6.2938294094 U2  -0.006040[ X]     0.000520[ 0]
    1    1          6.00       -77.2364517730 SC   0.004270[ 1]     0.000032[ X]
    1    2          0.00        -1.1250870486 U1  -0.001395[ X]    -0.000208[ X]
    1    3          0.00         2.7734047558 U2   0.000271[ X]    -0.000359[ 0]
    2    1          9.00        -9.5156768222 VA   0.000581[ 7]    -0.000209[ X]
    2    2          0.00         2.1943814233 U1   0.002255[ X]    -0.000147[ X]
    2    3          0.00         7.0237983816 U2   0.013736[ X]    -0.002051[ 0]
    3    1          0.00         4.2424542249 U1   0.000232[ X]    -0.000004[ X]

 Number of target values reached:                                      14 of  19

 POWELL| Start optimization   1 of total 100               rhobeg =   0.00020000
 POWELL| Inital value of function                                   1.3653633269
 POWELL| Reached   6% of maximal function calls                     1.3653633269
 POWELL| Reached   8% of maximal function calls                     1.3653633269
 POWELL| Reached  10% of maximal function calls                     1.3653633269
 POWELL| Reached  12% of maximal function calls                     1.3653633269
 POWELL| Reached  14% of maximal function calls                     1.3653633269
 POWELL| Reached  16% of maximal function calls                     1.3653633269
 POWELL| Reached  18% of maximal function calls                     1.3649147098
 POWELL| Reached  20% of maximal function calls                     1.3649147098
 POWELL| Reached  22% of maximal function calls                     1.3609638482
 POWELL| Reached  24% of maximal function calls                     1.3609638482
 POWELL| Reached  26% of maximal function calls                     1.3609638482
 POWELL| Reached  28% of maximal function calls                     1.3609638482
 POWELL| Reached  30% of maximal function calls                     1.3609638482
 POWELL| Reached  32% of maximal function calls                     1.3609638482
 POWELL| Reached  34% of maximal function calls                     1.3602404283
 POWELL| Reached  36% of maximal function calls                     1.3602404283
 POWELL| Reached  38% of maximal function calls                     1.3602404283
 POWELL| Reached  40% of maximal function calls                     1.3602404283
 POWELL| Reached  42% of maximal function calls                     1.3602404283
 POWELL| Reached  44% of maximal function calls                     1.3602404283
 POWELL| Reached  46% of maximal function calls                     1.3602404283
 POWELL| Reached  48% of maximal function calls                     1.3602404283
 POWELL| Reached  50% of maximal function calls                     1.3602404283
 POWELL| Reached  52% of maximal function calls                     1.3602404283
 POWELL| Reached  54% of maximal function calls                     1.3602404283
 POWELL| Reached  56% of maximal function calls                     1.3602404283
 POWELL| Reached  57% of maximal function calls                     1.3602404283
 POWELL| Reached  60% of maximal function calls                     1.3602404283
 POWELL| Reached  62% of maximal function calls                     1.3602404283
 POWELL| Reached  64% of maximal function calls                     1.3602404283
 POWELL| Reached  66% of maximal function calls                     1.3598952855
 POWELL| Reached  68% of maximal function calls                     1.3597610532
 POWELL| Reached  70% of maximal function calls                     1.3594304977
 POWELL| Reached  72% of maximal function calls                     1.3593091361
 POWELL| Reached  74% of maximal function calls                     1.3593091361
 POWELL| Reached  76% of maximal function calls                     1.3593091361
 POWELL| Reached  78% of maximal function calls                     1.3593074260
 POWELL| Reached  80% of maximal function calls                     1.3593074260
 POWELL| Reached  82% of maximal function calls                     1.3593018579
 POWELL| Reached  84% of maximal function calls                     1.3592978763
 POWELL| Reached  86% of maximal function calls                     1.3592946197
 POWELL| Reached  88% of maximal function calls                     1.3592946197
 POWELL| Reached  90% of maximal function calls                     1.3592946197
 POWELL| Reached  92% of maximal function calls                     1.3592946197
 POWELL| Reached  94% of maximal function calls                     1.3592921371
 POWELL| Reached  96% of maximal function calls                     1.3592921371
 POWELL| Reached  98% of maximal function calls                     1.3592921371
 POWELL| Reached 100% of maximal function calls                     1.3592921371
 POWELL| Reached 100% of maximal function calls                     1.3592921371
 POWELL| Exceeding maximum number of steps
 POWELL| Reached 100% of maximal function calls                     1.3592921371
 POWELL| RMS average of variables                                   0.0000558887
 POWELL| Start optimization   2 of total 100               rhobeg =   0.00019600
 POWELL| Inital value of function                                   1.3592921371
 POWELL| Reached   6% of maximal function calls                     1.3592921371
 POWELL| Reached   8% of maximal function calls                     1.3592921371
 POWELL| Reached  10% of maximal function calls                     1.3592921371
 POWELL| Reached  12% of maximal function calls                     1.3592921371
 POWELL| Reached  14% of maximal function calls                     1.3592921371
 POWELL| Reached  16% of maximal function calls                     1.3592921371
 POWELL| Reached  18% of maximal function calls                     1.3592921371
 POWELL| Reached  20% of maximal function calls                     1.3592921371
 POWELL| Reached  22% of maximal function calls                     1.3592921371
 POWELL| Reached  24% of maximal function calls                     1.3592921371
 POWELL| Reached  26% of maximal function calls                     1.3592921371
 POWELL| Reached  28% of maximal function calls                     1.3592921371
 POWELL| Reached  30% of maximal function calls                     1.3592921371
 POWELL| Reached  32% of maximal function calls                     1.3592921371
 POWELL| Reached  34% of maximal function calls                     1.3592921371
 POWELL| Reached  36% of maximal function calls                     1.3592921371
 POWELL| Reached  38% of maximal function calls                     1.3592921371
 POWELL| Reached  40% of maximal function calls                     1.3592921371
 POWELL| Reached  42% of maximal function calls                     1.3592921371
 POWELL| Reached  44% of maximal function calls                     1.3592921371
 POWELL| Reached  46% of maximal function calls                     1.3592921371
 POWELL| Reached  48% of maximal function calls                     1.3592921371
 POWELL| Reached  50% of maximal function calls                     1.3592921371
 POWELL| Reached  52% of maximal function calls                     1.3592921371
 POWELL| Reached  54% of maximal function calls                     1.3592921371
 POWELL| Reached  56% of maximal function calls                     1.3592921371
 POWELL| Reached  57% of maximal function calls                     1.3592921371
 POWELL| Reached  60% of maximal function calls                     1.3587724094
 POWELL| Reached  62% of maximal function calls                     1.3584046012
 POWELL| Reached  64% of maximal function calls                     1.3583709476
 POWELL| Reached  66% of maximal function calls                     1.3583624252
 POWELL| Reached  68% of maximal function calls                     1.3583624252
 POWELL| Reached  70% of maximal function calls                     1.3583377240
 POWELL| Reached  72% of maximal function calls                     1.3583138194
 POWELL| Reached  74% of maximal function calls                     1.3578613920
 POWELL| Reached  76% of maximal function calls                     1.3578279205
 POWELL| Reached  78% of maximal function calls                     1.3578279205
 POWELL| Reached  80% of maximal function calls                     1.3578279205
 POWELL| Reached  82% of maximal function calls                     1.3578278960
 POWELL| Reached  84% of maximal function calls                     1.3578278960
 POWELL| Reached  86% of maximal function calls                     1.3578278960
 POWELL| Reached  88% of maximal function calls                     1.3578278960
 POWELL| Reached  90% of maximal function calls                     1.3578278960
 POWELL| Reached  92% of maximal function calls                     1.3578278837
 POWELL| Reached  94% of maximal function calls                     1.3578278837
 POWELL| Reached  96% of maximal function calls                     1.3578278837
 POWELL| Reached  98% of maximal function calls                     1.3578278837
 POWELL| Reached 100% of maximal function calls                     1.3578276493
 POWELL| Reached 100% of maximal function calls                     1.3578272802
 POWELL| Exceeding maximum number of steps
 POWELL| Reached 100% of maximal function calls                     1.3578272802
 POWELL| RMS average of variables                                   0.0000110757
 POWELL| Start optimization   3 of total 100               rhobeg =   0.00019208
 POWELL| Inital value of function                                   1.3578272802
 POWELL| Reached   6% of maximal function calls                     1.3578272802
 POWELL| Reached   8% of maximal function calls                     1.3578272802
 POWELL| Reached  10% of maximal function calls                     1.3578272802
 POWELL| Reached  12% of maximal function calls                     1.3578272802
 POWELL| Reached  14% of maximal function calls                     1.3578272802
 POWELL| Reached  16% of maximal function calls                     1.3578272802
 POWELL| Reached  18% of maximal function calls                     1.3578272802
 POWELL| Reached  20% of maximal function calls                     1.3578272802
 POWELL| Reached  22% of maximal function calls                     1.3578272802
 POWELL| Reached  24% of maximal function calls                     1.3578272802
 POWELL| Reached  26% of maximal function calls                     1.3578272802
 POWELL| Reached  28% of maximal function calls                     1.3578272802
 POWELL| Reached  30% of maximal function calls                     1.3578272802
 POWELL| Reached  32% of maximal function calls                     1.3578272802
 POWELL| Reached  34% of maximal function calls                     1.3578272802
 POWELL| Reached  36% of maximal function calls                     1.3578272802
 POWELL| Reached  38% of maximal function calls                     1.3578272802
 POWELL| Reached  40% of maximal function calls                     1.3578272802
 POWELL| Reached  42% of maximal function calls                     1.3578272802
 POWELL| Reached  44% of maximal function calls                     1.3578272802
 POWELL| Reached  46% of maximal function calls                     1.3578272802
 POWELL| Reached  48% of maximal function calls                     1.3578272802
 POWELL| Reached  50% of maximal function calls                     1.3578272802
 POWELL| Reached  52% of maximal function calls                     1.3578272802
 POWELL| Reached  54% of maximal function calls                     1.3578272802
 POWELL| Reached  56% of maximal function calls                     1.3578272802
 POWELL| Reached  57% of maximal function calls                     1.3578272802
 POWELL| Reached  60% of maximal function calls                     1.3575842923
 POWELL| Reached  62% of maximal function calls                     1.3574961874
 POWELL| Reached  64% of maximal function calls                     1.3574961874
 POWELL| Reached  66% of maximal function calls                     1.3574961874
 POWELL| Reached  68% of maximal function calls                     1.3571734927
 POWELL| Reached  70% of maximal function calls                     1.3571495155
 POWELL| Reached  72% of maximal function calls                     1.3566159847
 POWELL| Reached  74% of maximal function calls                     1.3562607346
 POWELL| Reached  76% of maximal function calls                     1.3562607346
 POWELL| Reached  78% of maximal function calls                     1.3562607346
 POWELL| Reached  80% of maximal function calls                     1.3562607346
 POWELL| Reached  82% of maximal function calls                     1.3562565551
 POWELL| Reached  84% of maximal function calls                     1.3562491145
 POWELL| Reached  86% of maximal function calls                     1.3562491145
 POWELL| Reached  88% of maximal function calls                     1.3562486685
 POWELL| Reached  90% of maximal function calls                     1.3562472925
 POWELL| Reached  92% of maximal function calls                     1.3562472925
 POWELL| Reached  94% of maximal function calls                     1.3562470336
 POWELL| Reached  96% of maximal function calls                     1.3562470336
 POWELL| Reached  98% of maximal function calls                     1.3562469236
 POWELL| Reached 100% of maximal function calls                     1.3562469236
 POWELL| Reached 100% of maximal function calls                     1.3562466806
 POWELL| Exceeding maximum number of steps
 POWELL| Reached 100% of maximal function calls                     1.3562466806
 POWELL| RMS average of variables                                   0.0000107005
 POWELL| Start optimization   4 of total 100               rhobeg =   0.00018824
 POWELL| Inital value of function                                   1.3562466806
 POWELL| Reached   6% of maximal function calls                     1.3562466806
 POWELL| Reached   8% of maximal function calls                     1.3562466806
 POWELL| Reached  10% of maximal function calls                     1.3562466806
 POWELL| Reached  12% of maximal function calls                     1.3562466806
 POWELL| Reached  14% of maximal function calls                     1.3562466806
 POWELL| Reached  16% of maximal function calls                     1.3562466806
 POWELL| Reached  18% of maximal function calls                     1.3562466806
 POWELL| Reached  20% of maximal function calls                     1.3562466806
 POWELL| Reached  22% of maximal function calls                     1.3562466806
 POWELL| Reached  24% of maximal function calls                     1.3562466806
 POWELL| Reached  26% of maximal function calls                     1.3562466806
 POWELL| Reached  28% of maximal function calls                     1.3562466806
 POWELL| Reached  30% of maximal function calls                     1.3562466806
 POWELL| Reached  32% of maximal function calls                     1.3562466806
 POWELL| Reached  34% of maximal function calls                     1.3562466806
 POWELL| Reached  36% of maximal function calls                     1.3562466806
 POWELL| Reached  38% of maximal function calls                     1.3562466806
 POWELL| Reached  40% of maximal function calls                     1.3562466806
 POWELL| Reached  42% of maximal function calls                     1.3562466806
 POWELL| Reached  44% of maximal function calls                     1.3562466806
 POWELL| Reached  46% of maximal function calls                     1.3562466806
 POWELL| Reached  48% of maximal function calls                     1.3562466806
 POWELL| Reached  50% of maximal function calls                     1.3562466806
 POWELL| Reached  52% of maximal function calls                     1.3562466806
 POWELL| Reached  54% of maximal function calls                     1.3562466806
 POWELL| Reached  56% of maximal function calls                     1.3562466806
 POWELL| Reached  57% of maximal function calls                     1.3562466806
 POWELL| Reached  60% of maximal function calls                     1.3559774618
 POWELL| Reached  62% of maximal function calls                     1.3559481148
 POWELL| Reached  64% of maximal function calls                     1.3559481148
 POWELL| Reached  66% of maximal function calls                     1.3559481148
 POWELL| Reached  68% of maximal function calls                     1.3556576470
 POWELL| Reached  70% of maximal function calls                     1.3556318085
 POWELL| Reached  72% of maximal function calls                     1.3551599337
 POWELL| Reached  74% of maximal function calls                     1.3548582366
 POWELL| Reached  76% of maximal function calls                     1.3548582366
 POWELL| Reached  78% of maximal function calls                     1.3548582366
 POWELL| Reached  80% of maximal function calls                     1.3548566755
 POWELL| Reached  82% of maximal function calls                     1.3548566755
 POWELL| Reached  84% of maximal function calls                     1.3548566755
 POWELL| Reached  86% of maximal function calls                     1.3548483651
 POWELL| Reached  88% of maximal function calls                     1.3548483651
 POWELL| Reached  90% of maximal function calls                     1.3548426492
 POWELL| Reached  92% of maximal function calls                     1.3548408429
 POWELL| Reached  94% of maximal function calls                     1.3548274957
 POWELL| Reached  96% of maximal function calls                     1.3548269866
 POWELL| Reached  98% of maximal function calls                     1.3548182651
 POWELL| Reached 100% of maximal function calls                     1.3548177615
 POWELL| Reached 100% of maximal function calls                     1.3548025622
 POWELL| Exceeding maximum number of steps
 POWELL| Reached 100% of maximal function calls                     1.3548025622
 POWELL| RMS average of variables                                   0.0000104838
 POWELL| Start optimization   5 of total 100               rhobeg =   0.00018447
 POWELL| Inital value of function                                   1.3548025622
 POWELL| Reached   6% of maximal function calls                     1.3548025622
 POWELL| Reached   8% of maximal function calls                     1.3548025622
 POWELL| Reached  10% of maximal function calls                     1.3548025622
 POWELL| Reached  12% of maximal function calls                     1.3548025622
 POWELL| Reached  14% of maximal function calls                     1.3548025622
 POWELL| Reached  16% of maximal function calls                     1.3548025622
 POWELL| Reached  18% of maximal function calls                     1.3548025622
 POWELL| Reached  20% of maximal function calls                     1.3548025622
 POWELL| Reached  22% of maximal function calls                     1.3548025622
 POWELL| Reached  24% of maximal function calls                     1.3548025622
 POWELL| Reached  26% of maximal function calls                     1.3548025622
 POWELL| Reached  28% of maximal function calls                     1.3548025622
 POWELL| Reached  30% of maximal function calls                     1.3548025622
 POWELL| Reached  32% of maximal function calls                     1.3548025622
 POWELL| Reached  34% of maximal function calls                     1.3548025622
 POWELL| Reached  36% of maximal function calls                     1.3548025622
 POWELL| Reached  38% of maximal function calls                     1.3548025622
 POWELL| Reached  40% of maximal function calls                     1.3548025622
 POWELL| Reached  42% of maximal function calls                     1.3548025622
 POWELL| Reached  44% of maximal function calls                     1.3548025622
 POWELL| Reached  46% of maximal function calls                     1.3548025622
 POWELL| Reached  48% of maximal function calls                     1.3548025622
 POWELL| Reached  50% of maximal function calls                     1.3548025622
 POWELL| Reached  52% of maximal function calls                     1.3548025622
 POWELL| Reached  54% of maximal function calls                     1.3548025622
 POWELL| Reached  56% of maximal function calls                     1.3548025622
 POWELL| Reached  57% of maximal function calls                     1.3548025622
 POWELL| Reached  60% of maximal function calls                     1.3545123160
 POWELL| Reached  62% of maximal function calls                     1.3543491702
 POWELL| Reached  64% of maximal function calls                     1.3543491702
 POWELL| Reached  66% of maximal function calls                     1.3543491702
 POWELL| Reached  68% of maximal function calls                     1.3542769244
 POWELL| Reached  70% of maximal function calls                     1.3541407620
 POWELL| Reached  72% of maximal function calls                     1.3538478082
 POWELL| Reached  74% of maximal function calls                     1.3535719399
 POWELL| Reached  76% of maximal function calls                     1.3535719399
 POWELL| Reached  78% of maximal function calls                     1.3535719399
 POWELL| Reached  80% of maximal function calls                     1.3535719399
 POWELL| Reached  82% of maximal function calls                     1.3535685349
 POWELL| Reached  84% of maximal function calls                     1.3535631228
 POWELL| Reached  86% of maximal function calls                     1.3535631228
 POWELL| Reached  88% of maximal function calls                     1.3535631228
 POWELL| Reached  90% of maximal function calls                     1.3535631228
 POWELL| Reached  92% of maximal function calls                     1.3535618641
 POWELL| Reached  94% of maximal function calls                     1.3535618641
 POWELL| Reached  96% of maximal function calls                     1.3535582322
 POWELL| Reached  98% of maximal function calls                     1.3535421859
 POWELL| Reached 100% of maximal function calls                     1.3535421859
 POWELL| Reached 100% of maximal function calls                     1.3535415361
 POWELL| Exceeding maximum number of steps
 POWELL| Reached 100% of maximal function calls                     1.3535415361
 POWELL| RMS average of variables                                   0.0000102726
 POWELL| Start optimization   6 of total 100               rhobeg =   0.00018078
 POWELL| Inital value of function                                   1.3535415361
 POWELL| Reached   6% of maximal function calls                     1.3535415361
 POWELL| Reached   8% of maximal function calls                     1.3535415361
 POWELL| Reached  10% of maximal function calls                     1.3535415361
 POWELL| Reached  12% of maximal function calls                     1.3535415361
 POWELL| Reached  14% of maximal function calls                     1.3535415361
 POWELL| Reached  16% of maximal function calls                     1.3535415361
 POWELL| Reached  18% of maximal function calls                     1.3535415361
 POWELL| Reached  20% of maximal function calls                     1.3535415361
 POWELL| Reached  22% of maximal function calls                     1.3535415361
 POWELL| Reached  24% of maximal function calls                     1.3535415361
 POWELL| Reached  26% of maximal function calls                     1.3535415361
 POWELL| Reached  28% of maximal function calls                     1.3535415361
 POWELL| Reached  30% of maximal function calls                     1.3535415361
 POWELL| Reached  32% of maximal function calls                     1.3535415361
 POWELL| Reached  34% of maximal function calls                     1.3535415361
 POWELL| Reached  36% of maximal function calls                     1.3535415361
 POWELL| Reached  38% of maximal function calls                     1.3535415361
 POWELL| Reached  40% of maximal function calls                     1.3535415361
 POWELL| Reached  42% of maximal function calls                     1.3535415361
 POWELL| Reached  44% of maximal function calls                     1.3535415361
 POWELL| Reached  46% of maximal function calls                     1.3535415361
 POWELL| Reached  48% of maximal function calls                     1.3535415361
 POWELL| Reached  50% of maximal function calls                     1.3535415361
 POWELL| Reached  52% of maximal function calls                     1.3535415361
 POWELL| Reached  54% of maximal function calls                     1.3535415361
 POWELL| Reached  56% of maximal function calls                     1.3535415361
 POWELL| Reached  57% of maximal function calls                     1.3535415361
 POWELL| Reached  60% of maximal function calls                     1.3531415194
 POWELL| Reached  62% of maximal function calls                     1.3530059006
 POWELL| Reached  64% of maximal function calls                     1.3530059006
 POWELL| Reached  66% of maximal function calls                     1.3530059006
 POWELL| Reached  68% of maximal function calls                     1.3527453435
 POWELL| Reached  70% of maximal function calls                     1.3527216607
 POWELL| Reached  72% of maximal function calls                     1.3523861111
 POWELL| Reached  74% of maximal function calls                     1.3522039817
 POWELL| Reached  76% of maximal function calls                     1.3522039817
 POWELL| Reached  78% of maximal function calls                     1.3522039817
 POWELL| Reached  80% of maximal function calls                     1.3522039817
 POWELL| Reached  82% of maximal function calls                     1.3522033747
 POWELL| Reached  84% of maximal function calls                     1.3522033747
 POWELL| Reached  86% of maximal function calls                     1.3521989262
 POWELL| Reached  88% of maximal function calls                     1.3521982790
 POWELL| Reached  90% of maximal function calls                     1.3521982790
 POWELL| Reached  92% of maximal function calls                     1.3521982790
 POWELL| Reached  94% of maximal function calls                     1.3521831821
 POWELL| Reached  96% of maximal function calls                     1.3521831821
 POWELL| Reached  98% of maximal function calls                     1.3521744057
 POWELL| Reached 100% of maximal function calls                     1.3521720538
 POWELL| Reached 100% of maximal function calls                     1.3521720538
 POWELL| Exceeding maximum number of steps
 POWELL| Reached 100% of maximal function calls                     1.3521720538
 POWELL| RMS average of variables                                   0.0000100669
 POWELL| Start optimization   7 of total 100               rhobeg =   0.00017717
 POWELL| Inital value of function                                   1.3521720538
 POWELL| Reached   6% of maximal function calls                     1.3521720538
 POWELL| Reached   8% of maximal function calls                     1.3521720538
 POWELL| Reached  10% of maximal function calls                     1.3521720538
 POWELL| Reached  12% of maximal function calls                     1.3521720538
 POWELL| Reached  14% of maximal function calls                     1.3521720538
 POWELL| Reached  16% of maximal function calls                     1.3521720538
 POWELL| Reached  18% of maximal function calls                     1.3521720538
 POWELL| Reached  20% of maximal function calls                     1.3521720538
 POWELL| Reached  22% of maximal function calls                     1.3521720538
 POWELL| Reached  24% of maximal function calls                     1.3521720538
 POWELL| Reached  26% of maximal function calls                     1.3521720538
 POWELL| Reached  28% of maximal function calls                     1.3521720538
 POWELL| Reached  30% of maximal function calls                     1.3521720538
 POWELL| Reached  32% of maximal function calls                     1.3521720538
 POWELL| Reached  34% of maximal function calls                     1.3521720538
 POWELL| Reached  36% of maximal function calls                     1.3521720538
 POWELL| Reached  38% of maximal function calls                     1.3521720538
 POWELL| Reached  40% of maximal function calls                     1.3521720538
 POWELL| Reached  42% of maximal function calls                     1.3521720538
 POWELL| Reached  44% of maximal function calls                     1.3521720538
 POWELL| Reached  46% of maximal function calls                     1.3521720538
 POWELL| Reached  48% of maximal function calls                     1.3521720538
 POWELL| Reached  50% of maximal function calls                     1.3521720538
 POWELL| Reached  52% of maximal function calls                     1.3521720538
 POWELL| Reached  54% of maximal function calls                     1.3521720538
 POWELL| Reached  56% of maximal function calls                     1.3521720538
 POWELL| Reached  57% of maximal function calls                     1.3521720538
 POWELL| Reached  60% of maximal function calls                     1.3517615111
 POWELL| Reached  62% of maximal function calls                     1.3516669306
 POWELL| Reached  64% of maximal function calls                     1.3516669306
 POWELL| Reached  66% of maximal function calls                     1.3516669306
 POWELL| Reached  68% of maximal function calls                     1.3514004154
 POWELL| Reached  70% of maximal function calls                     1.3514004154
 POWELL| Reached  72% of maximal function calls                     1.3511253045
 POWELL| Reached  74% of maximal function calls                     1.3510331451
 POWELL| Reached  76% of maximal function calls                     1.3510331451
 POWELL| Reached  78% of maximal function calls                     1.3510331451
 POWELL| Reached  80% of maximal function calls                     1.3510331451
 POWELL| Reached  82% of maximal function calls                     1.3510331451
 POWELL| Reached  84% of maximal function calls                     1.3510302295
 POWELL| Reached  86% of maximal function calls                     1.3510292749
 POWELL| Reached  88% of maximal function calls                     1.3510292749
 POWELL| Reached  90% of maximal function calls                     1.3510292749
 POWELL| Reached  92% of maximal function calls                     1.3510286598
 POWELL| Reached  94% of maximal function calls                     1.3510272561
 POWELL| Reached  96% of maximal function calls                     1.3510272561
 POWELL| Reached  98% of maximal function calls                     1.3510272561
 POWELL| Reached 100% of maximal function calls                     1.3510272561
 POWELL| Reached 100% of maximal function calls                     1.3510272561
 POWELL| Exceeding maximum number of steps
 POWELL| Reached 100% of maximal function calls                     1.3510272561
 POWELL| RMS average of variables                                   0.0000098468
 POWELL| Start optimization   8 of total 100               rhobeg =   0.00017363
 POWELL| Inital value of function                                   1.3510272561
 POWELL| Reached   6% of maximal function calls                     1.3510272561
 POWELL| Reached   8% of maximal function calls                     1.3510272561
 POWELL| Reached  10% of maximal function calls                     1.3510272561
 POWELL| Reached  12% of maximal function calls                     1.3510272561
 POWELL| Reached  14% of maximal function calls                     1.3510272561
 POWELL| Reached  16% of maximal function calls                     1.3510272561
 POWELL| Reached  18% of maximal function calls                     1.3510272561
 POWELL| Reached  20% of maximal function calls                     1.3510272561
 POWELL| Reached  22% of maximal function calls                     1.3510272561
 POWELL| Reached  24% of maximal function calls                     1.3510272561
 POWELL| Reached  26% of maximal function calls                     1.3510272561
 POWELL| Reached  28% of maximal function calls                     1.3510272561
 POWELL| Reached  30% of maximal function calls                     1.3510272561
 POWELL| Reached  32% of maximal function calls                     1.3510272561
 POWELL| Reached  34% of maximal function calls                     1.3510272561
 POWELL| Reached  36% of maximal function calls                     1.3510272561
 POWELL| Reached  38% of maximal function calls                     1.3510272561
 POWELL| Reached  40% of maximal function calls                     1.3510272561
 POWELL| Reached  42% of maximal function calls                     1.3510272561
 POWELL| Reached  44% of maximal function calls                     1.3510272561
 POWELL| Reached  46% of maximal function calls                     1.3510272561
 POWELL| Reached  48% of maximal function calls                     1.3510272561
 POWELL| Reached  50% of maximal function calls                     1.3510272561
 POWELL| Reached  52% of maximal function calls                     1.3510272561
 POWELL| Reached  54% of maximal function calls                     1.3510272561
 POWELL| Reached  56% of maximal function calls                     1.3510272561
 POWELL| Reached  57% of maximal function calls                     1.3510272561
 POWELL| Reached  60% of maximal function calls                     1.3506901982
 POWELL| Reached  62% of maximal function calls                     1.3504717281
 POWELL| Reached  64% of maximal function calls                     1.3504717281
 POWELL| Reached  66% of maximal function calls                     1.3504717281
 POWELL| Reached  68% of maximal function calls                     1.3502020151
 POWELL| Reached  70% of maximal function calls                     1.3501771219
 POWELL| Reached  72% of maximal function calls                     1.3499726078
 POWELL| Reached  74% of maximal function calls                     1.3498960364
 POWELL| Reached  76% of maximal function calls                     1.3498960364
 POWELL| Reached  78% of maximal function calls                     1.3498960364
 POWELL| Reached  80% of maximal function calls                     1.3498952689
 POWELL| Reached  82% of maximal function calls                     1.3498943532
 POWELL| Reached  84% of maximal function calls                     1.3498943532
 POWELL| Reached  86% of maximal function calls                     1.3498943532
 POWELL| Reached  88% of maximal function calls                     1.3498943532
 POWELL| Reached  90% of maximal function calls                     1.3498791551
 POWELL| Reached  92% of maximal function calls                     1.3498774702
 POWELL| Reached  94% of maximal function calls                     1.3498474696
 POWELL| Reached  96% of maximal function calls                     1.3498474696
 POWELL| Reached  98% of maximal function calls                     1.3498474696
 POWELL| Reached 100% of maximal function calls                     1.3498461568
 POWELL| Reached 100% of maximal function calls                     1.3498451181
 POWELL| Exceeding maximum number of steps
 POWELL| Reached 100% of maximal function calls                     1.3498451181
 POWELL| RMS average of variables                                   0.0000096767
 POWELL| Start optimization   9 of total 100               rhobeg =   0.00017015
 POWELL| Inital value of function                                   1.3498451181
 POWELL| Reached   6% of maximal function calls                     1.3498451181
 POWELL| Reached   8% of maximal function calls                     1.3498451181
 POWELL| Reached  10% of maximal function calls                     1.3498451181
 POWELL| Reached  12% of maximal function calls                     1.3498451181
 POWELL| Reached  14% of maximal function calls                     1.3498451181
 POWELL| Reached  16% of maximal function calls                     1.3498451181
 POWELL| Reached  18% of maximal function calls                     1.3498451181
 POWELL| Reached  20% of maximal function calls                     1.3498451181
 POWELL| Reached  22% of maximal function calls                     1.3498451181
 POWELL| Reached  24% of maximal function calls                     1.3498451181
 POWELL| Reached  26% of maximal function calls                     1.3498451181
 POWELL| Reached  28% of maximal function calls                     1.3498451181
 POWELL| Reached  30% of maximal function calls                     1.3498451181
 POWELL| Reached  32% of maximal function calls                     1.3498451181
 POWELL| Reached  34% of maximal function calls                     1.3498451181
 POWELL| Reached  36% of maximal function calls                     1.3498451181
 POWELL| Reached  38% of maximal function calls                     1.3498451181
 POWELL| Reached  40% of maximal function calls                     1.3498451181
 POWELL| Reached  42% of maximal function calls                     1.3498451181
 POWELL| Reached  44% of maximal function calls                     1.3498451181
 POWELL| Reached  46% of maximal function calls                     1.3498451181
 POWELL| Reached  48% of maximal function calls                     1.3498451181
 POWELL| Reached  50% of maximal function calls                     1.3498451181
 POWELL| Reached  52% of maximal function calls                     1.3498451181
 POWELL| Reached  54% of maximal function calls                     1.3498451181
 POWELL| Reached  56% of maximal function calls                     1.3498451181
 POWELL| Reached  57% of maximal function calls                     1.3498451181
 POWELL| Reached  60% of maximal function calls                     1.3495081055
 POWELL| Reached  62% of maximal function calls                     1.3492935762
 POWELL| Reached  64% of maximal function calls                     1.3492935762
 POWELL| Reached  66% of maximal function calls                     1.3492935762
 POWELL| Reached  68% of maximal function calls                     1.3491070199
 POWELL| Reached  70% of maximal function calls                     1.3490823366
 POWELL| Reached  72% of maximal function calls                     1.3489176485
 POWELL| Reached  74% of maximal function calls                     1.3488839280
 POWELL| Reached  76% of maximal function calls                     1.3488839280
 POWELL| Reached  78% of maximal function calls                     1.3488839280
 POWELL| Reached  80% of maximal function calls                     1.3488839280
 POWELL| Reached  82% of maximal function calls                     1.3488839280
 POWELL| Reached  84% of maximal function calls                     1.3488839280
 POWELL| Reached  86% of maximal function calls                     1.3488839280
 POWELL| Reached  88% of maximal function calls                     1.3488839280
 POWELL| Reached  90% of maximal function calls                     1.3488825570
 POWELL| Reached  92% of maximal function calls                     1.3488825570
 POWELL| Reached  94% of maximal function calls                     1.3488797584
 POWELL| Reached  96% of maximal function calls                     1.3488796124
 POWELL| Reached  98% of maximal function calls                     1.3488618024
 POWELL| Reached 100% of maximal function calls                     1.3488618024
 POWELL| Reached 100% of maximal function calls                     1.3488618024
 POWELL| Exceeding maximum number of steps
 POWELL| Reached 100% of maximal function calls                     1.3488618024
 POWELL| RMS average of variables                                   0.0000094837
 POWELL| Start optimization  10 of total 100               rhobeg =   0.00016675
 POWELL| Inital value of function                                   1.3488618024
 POWELL| Reached   6% of maximal function calls                     1.3488618024
 POWELL| Reached   8% of maximal function calls                     1.3488618024
 POWELL| Reached  10% of maximal function calls                     1.3488618024
 POWELL| Reached  12% of maximal function calls                     1.3488618024
 POWELL| Reached  14% of maximal function calls                     1.3488618024
 POWELL| Reached  16% of maximal function calls                     1.3488618024
 POWELL| Reached  18% of maximal function calls                     1.3488618024
 POWELL| Reached  20% of maximal function calls                     1.3488618024
 POWELL| Reached  22% of maximal function calls                     1.3488618024
 POWELL| Reached  24% of maximal function calls                     1.3488618024
 POWELL| Reached  26% of maximal function calls                     1.3488618024
 POWELL| Reached  28% of maximal function calls                     1.3488618024
 POWELL| Reached  30% of maximal function calls                     1.3488618024
 POWELL| Reached  32% of maximal function calls                     1.3488618024
 POWELL| Reached  34% of maximal function calls                     1.3488618024
 POWELL| Reached  36% of maximal function calls                     1.3488618024
 POWELL| Reached  38% of maximal function calls                     1.3488618024
 POWELL| Reached  40% of maximal function calls                     1.3488618024
 POWELL| Reached  42% of maximal function calls                     1.3488618024
 POWELL| Reached  44% of maximal function calls                     1.3488618024
 POWELL| Reached  46% of maximal function calls                     1.3488618024
 POWELL| Reached  48% of maximal function calls                     1.3488618024
 POWELL| Reached  50% of maximal function calls                     1.3488618024
 POWELL| Reached  52% of maximal function calls                     1.3488618024
 POWELL| Reached  54% of maximal function calls                     1.3488618024
 POWELL| Reached  56% of maximal function calls                     1.3488618024
 POWELL| Reached  57% of maximal function calls                     1.3488618024
 POWELL| Reached  60% of maximal function calls                     1.3485179836
 POWELL| Reached  62% of maximal function calls                     1.3483021970
 POWELL| Reached  64% of maximal function calls                     1.3483021970
 POWELL| Reached  66% of maximal function calls                     1.3483021970
 POWELL| Reached  68% of maximal function calls                     1.3480360779
 POWELL| Reached  70% of maximal function calls                     1.3480114486
 POWELL| Reached  72% of maximal function calls                     1.3478912565
 POWELL| Reached  74% of maximal function calls                     1.3478912565
 POWELL| Reached  76% of maximal function calls                     1.3478584876
 POWELL| Reached  78% of maximal function calls                     1.3478584876
 POWELL| Reached  80% of maximal function calls                     1.3478584876
 POWELL| Reached  82% of maximal function calls                     1.3478584876
 POWELL| Reached  84% of maximal function calls                     1.3478560415
 POWELL| Reached  86% of maximal function calls                     1.3478555004
 POWELL| Reached  88% of maximal function calls                     1.3478555004
 POWELL| Reached  90% of maximal function calls                     1.3478553542
 POWELL| Reached  92% of maximal function calls                     1.3478553542
 POWELL| Reached  94% of maximal function calls                     1.3478553542
 POWELL| Reached  96% of maximal function calls                     1.3478546850
 POWELL| Reached  98% of maximal function calls                     1.3478544962
 POWELL| Reached 100% of maximal function calls                     1.3478544962
 POWELL| Reached 100% of maximal function calls                     1.3478535418
 POWELL| Exceeding maximum number of steps
 POWELL| Reached 100% of maximal function calls                     1.3478535418
 POWELL| RMS average of variables                                   0.0000092747
 POWELL| Start optimization  11 of total 100               rhobeg =   0.00016341
 POWELL| Inital value of function                                   1.3478535418
 POWELL| Reached   6% of maximal function calls                     1.3478535418
 POWELL| Reached   8% of maximal function calls                     1.3478535418
 POWELL| Reached  10% of maximal function calls                     1.3478535418
 POWELL| Reached  12% of maximal function calls                     1.3478535418
 POWELL| Reached  14% of maximal function calls                     1.3478535418
 POWELL| Reached  16% of maximal function calls                     1.3478535418
 POWELL| Reached  18% of maximal function calls                     1.3478535418
 POWELL| Reached  20% of maximal function calls                     1.3478535418
 POWELL| Reached  22% of maximal function calls                     1.3478535418
 POWELL| Reached  24% of maximal function calls                     1.3478535418
 POWELL| Reached  26% of maximal function calls                     1.3478535418
 POWELL| Reached  28% of maximal function calls                     1.3478535418
 POWELL| Reached  30% of maximal function calls                     1.3478535418
 POWELL| Reached  32% of maximal function calls                     1.3478535418
 POWELL| Reached  34% of maximal function calls                     1.3478535418
 POWELL| Reached  36% of maximal function calls                     1.3478535418
 POWELL| Reached  38% of maximal function calls                     1.3478535418
 POWELL| Reached  40% of maximal function calls                     1.3478535418
 POWELL| Reached  42% of maximal function calls                     1.3478535418
 POWELL| Reached  44% of maximal function calls                     1.3478535418
 POWELL| Reached  46% of maximal function calls                     1.3478535418
 POWELL| Reached  48% of maximal function calls                     1.3478535418
 POWELL| Reached  50% of maximal function calls                     1.3478535418
 POWELL| Reached  52% of maximal function calls                     1.3478535418
 POWELL| Reached  54% of maximal function calls                     1.3478535418
 POWELL| Reached  56% of maximal function calls                     1.3478535418
 POWELL| Reached  57% of maximal function calls                     1.3478535418
 POWELL| Reached  60% of maximal function calls                     1.3476239806
 POWELL| Reached  62% of maximal function calls                     1.3475021818
 POWELL| Reached  64% of maximal function calls                     1.3475021818
 POWELL| Reached  66% of maximal function calls                     1.3475021818
 POWELL| Reached  68% of maximal function calls                     1.3472296421
 POWELL| Reached  70% of maximal function calls                     1.3472046934
 POWELL| Reached  72% of maximal function calls                     1.3471639727
 POWELL| Reached  74% of maximal function calls                     1.3469913293
 POWELL| Reached  76% of maximal function calls                     1.3469813160
 POWELL| Reached  78% of maximal function calls                     1.3469813160
 POWELL| Reached  80% of maximal function calls                     1.3469804067
 POWELL| Reached  82% of maximal function calls                     1.3469804067
 POWELL| Reached  84% of maximal function calls                     1.3469804067
 POWELL| Reached  86% of maximal function calls                     1.3469753368
 POWELL| Reached  88% of maximal function calls                     1.3469518931
 POWELL| Reached  90% of maximal function calls                     1.3469485890
 POWELL| Reached  92% of maximal function calls                     1.3469483143
 POWELL| Reached  94% of maximal function calls                     1.3469471644
 POWELL| Reached  96% of maximal function calls                     1.3469471644
 POWELL| Reached  98% of maximal function calls                     1.3469463148
 POWELL| Reached 100% of maximal function calls                     1.3469456582
 POWELL| Reached 100% of maximal function calls                     1.3469456582
 POWELL| Exceeding maximum number of steps
 POWELL| Reached 100% of maximal function calls                     1.3469456582
 POWELL| RMS average of variables                                   0.0000090893
 POWELL| Start optimization  12 of total 100               rhobeg =   0.00016015
 POWELL| Inital value of function                                   1.3469456582
 POWELL| Reached   6% of maximal function calls                     1.3469456582
 POWELL| Reached   8% of maximal function calls                     1.3469456582
 POWELL| Reached  10% of maximal function calls                     1.3469456582
 POWELL| Reached  12% of maximal function calls                     1.3469456582
 POWELL| Reached  14% of maximal function calls                     1.3469456582
 POWELL| Reached  16% of maximal function calls                     1.3469456582
 POWELL| Reached  18% of maximal function calls                     1.3469456582
 POWELL| Reached  20% of maximal function calls                     1.3469456582
 POWELL| Reached  22% of maximal function calls                     1.3469456582
 POWELL| Reached  24% of maximal function calls                     1.3469456582
 POWELL| Reached  26% of maximal function calls                     1.3469456582
 POWELL| Reached  28% of maximal function calls                     1.3469456582
 POWELL| Reached  30% of maximal function calls                     1.3469456582
 POWELL| Reached  32% of maximal function calls                     1.3469456582
 POWELL| Reached  34% of maximal function calls                     1.3469456582
 POWELL| Reached  36% of maximal function calls                     1.3469456582
 POWELL| Reached  38% of maximal function calls                     1.3469456582
 POWELL| Reached  40% of maximal function calls                     1.3469456582
 POWELL| Reached  42% of maximal function calls                     1.3469456582
 POWELL| Reached  44% of maximal function calls                     1.3469456582
 POWELL| Reached  46% of maximal function calls                     1.3469456582
 POWELL| Reached  48% of maximal function calls                     1.3469456582
 POWELL| Reached  50% of maximal function calls                     1.3469456582
 POWELL| Reached  52% of maximal function calls                     1.3469456582
 POWELL| Reached  54% of maximal function calls                     1.3469456582
 POWELL| Reached  56% of maximal function calls                     1.3469456582
 POWELL| Reached  57% of maximal function calls                     1.3469456582
 POWELL| Reached  60% of maximal function calls                     1.3467672601
 POWELL| Reached  62% of maximal function calls                     1.3466922256
 POWELL| Reached  64% of maximal function calls                     1.3466922256
 POWELL| Reached  66% of maximal function calls                     1.3466922256
 POWELL| Reached  68% of maximal function calls                     1.3464197411
 POWELL| Reached  70% of maximal function calls                     1.3463948995
 POWELL| Reached  72% of maximal function calls                     1.3461658798
 POWELL| Reached  74% of maximal function calls                     1.3460561155
 POWELL| Reached  76% of maximal function calls                     1.3460561155
 POWELL| Reached  78% of maximal function calls                     1.3460561155
 POWELL| Reached  80% of maximal function calls                     1.3460561155
 POWELL| Reached  82% of maximal function calls                     1.3460539558
 POWELL| Reached  84% of maximal function calls                     1.3460523490
 POWELL| Reached  86% of maximal function calls                     1.3460523490
 POWELL| Reached  88% of maximal function calls                     1.3460523490
 POWELL| Reached  90% of maximal function calls                     1.3460523490
 POWELL| Reached  92% of maximal function calls                     1.3460517197
 POWELL| Reached  94% of maximal function calls                     1.3460517197
 POWELL| Reached  96% of maximal function calls                     1.3460500142
 POWELL| Reached  98% of maximal function calls                     1.3460295286
 POWELL| Reached 100% of maximal function calls                     1.3460295286
 POWELL| Reached 100% of maximal function calls                     1.3460288284
 POWELL| Exceeding maximum number of steps
 POWELL| Reached 100% of maximal function calls                     1.3460288284
 POWELL| RMS average of variables                                   0.0000089202
 POWELL| Start optimization  13 of total 100               rhobeg =   0.00015694
 POWELL| Inital value of function                                   1.3460288284
 POWELL| Reached   6% of maximal function calls                     1.3460288284
 POWELL| Reached   8% of maximal function calls                     1.3460288284
 POWELL| Reached  10% of maximal function calls                     1.3460288284
 POWELL| Reached  12% of maximal function calls                     1.3460288284
 POWELL| Reached  14% of maximal function calls                     1.3460288284
 POWELL| Reached  16% of maximal function calls                     1.3460288284
 POWELL| Reached  18% of maximal function calls                     1.3460288284
 POWELL| Reached  20% of maximal function calls                     1.3460288284
 POWELL| Reached  22% of maximal function calls                     1.3460288284
 POWELL| Reached  24% of maximal function calls                     1.3460288284
 POWELL| Reached  26% of maximal function calls                     1.3460288284
 POWELL| Reached  28% of maximal function calls                     1.3460288284
 POWELL| Reached  30% of maximal function calls                     1.3460288284
 POWELL| Reached  32% of maximal function calls                     1.3460288284
 POWELL| Reached  34% of maximal function calls                     1.3460288284
 POWELL| Reached  36% of maximal function calls                     1.3460288284
 POWELL| Reached  38% of maximal function calls                     1.3460288284
 POWELL| Reached  40% of maximal function calls                     1.3460288284
 POWELL| Reached  42% of maximal function calls                     1.3460288284
 POWELL| Reached  44% of maximal function calls                     1.3460288284
 POWELL| Reached  46% of maximal function calls                     1.3460288284
 POWELL| Reached  48% of maximal function calls                     1.3460288284
 POWELL| Reached  50% of maximal function calls                     1.3460288284
 POWELL| Reached  52% of maximal function calls                     1.3460288284
 POWELL| Reached  54% of maximal function calls                     1.3460288284
 POWELL| Reached  56% of maximal function calls                     1.3460288284
 POWELL| Reached  57% of maximal function calls                     1.3460288284
 POWELL| Reached  60% of maximal function calls                     1.3458385263
 POWELL| Reached  62% of maximal function calls                     1.3457474725
 POWELL| Reached  64% of maximal function calls                     1.3457474725
 POWELL| Reached  66% of maximal function calls                     1.3457474725
 POWELL| Reached  68% of maximal function calls                     1.3454769121
 POWELL| Reached  70% of maximal function calls                     1.3454521492
 POWELL| Reached  72% of maximal function calls                     1.3454069162
 POWELL| Reached  74% of maximal function calls                     1.3452486310
 POWELL| Reached  76% of maximal function calls                     1.3452394889
 POWELL| Reached  78% of maximal function calls                     1.3452394889
 POWELL| Reached  80% of maximal function calls                     1.3452394889
 POWELL| Reached  82% of maximal function calls                     1.3452394889
 POWELL| Reached  84% of maximal function calls                     1.3452373797
 POWELL| Reached  86% of maximal function calls                     1.3452346988
 POWELL| Reached  88% of maximal function calls                     1.3452328403
 POWELL| Reached  90% of maximal function calls                     1.3452328403
 POWELL| Reached  92% of maximal function calls                     1.3452328403
 POWELL| Reached  94% of maximal function calls                     1.3452201181
 POWELL| Reached  96% of maximal function calls                     1.3452201027
 POWELL| Reached  98% of maximal function calls                     1.3452104574
 POWELL| Reached 100% of maximal function calls                     1.3452098464
 POWELL| Reached 100% of maximal function calls                     1.3451960304
 POWELL| Exceeding maximum number of steps
 POWELL| Reached 100% of maximal function calls                     1.3451960304
 POWELL| RMS average of variables                                   0.0000087343
 POWELL| Start optimization  14 of total 100               rhobeg =   0.00015380
 POWELL| Inital value of function                                   1.3451960304
 POWELL| Reached   6% of maximal function calls                     1.3451960304
 POWELL| Reached   8% of maximal function calls                     1.3451960304
 POWELL| Reached  10% of maximal function calls                     1.3451960304
 POWELL| Reached  12% of maximal function calls                     1.3451960304
 POWELL| Reached  14% of maximal function calls                     1.3451960304
 POWELL| Reached  16% of maximal function calls                     1.3451960304
 POWELL| Reached  18% of maximal function calls                     1.3451960304
 POWELL| Reached  20% of maximal function calls                     1.3451960304
 POWELL| Reached  22% of maximal function calls                     1.3451960304
 POWELL| Reached  24% of maximal function calls                     1.3451960304
 POWELL| Reached  26% of maximal function calls                     1.3451960304
 POWELL| Reached  28% of maximal function calls                     1.3451960304
 POWELL| Reached  30% of maximal function calls                     1.3451960304
 POWELL| Reached  32% of maximal function calls                     1.3451960304
 POWELL| Reached  34% of maximal function calls                     1.3451960304
 POWELL| Reached  36% of maximal function calls                     1.3451960304
 POWELL| Reached  38% of maximal function calls                     1.3451960304
 POWELL| Reached  40% of maximal function calls                     1.3451960304
 POWELL| Reached  42% of maximal function calls                     1.3451960304
 POWELL| Reached  44% of maximal function calls                     1.3451960304
 POWELL| Reached  46% of maximal function calls                     1.3451960304
 POWELL| Reached  48% of maximal function calls                     1.3451960304
 POWELL| Reached  50% of maximal function calls                     1.3451960304
 POWELL| Reached  52% of maximal function calls                     1.3451960304
 POWELL| Reached  54% of maximal function calls                     1.3451960304
 POWELL| Reached  56% of maximal function calls                     1.3451960304
 POWELL| Reached  57% of maximal function calls                     1.3451960304
 POWELL| Reached  60% of maximal function calls                     1.3450546819
 POWELL| Reached  62% of maximal function calls                     1.3450086405
 POWELL| Reached  64% of maximal function calls                     1.3450086405
 POWELL| Reached  66% of maximal function calls                     1.3450086405
 POWELL| Reached  68% of maximal function calls                     1.3447386332
 POWELL| Reached  70% of maximal function calls                     1.3447140359
 POWELL| Reached  72% of maximal function calls                     1.3445008117
 POWELL| Reached  74% of maximal function calls                     1.3443976945
 POWELL| Reached  76% of maximal function calls                     1.3443976945
 POWELL| Reached  78% of maximal function calls                     1.3443969886
 POWELL| Reached  80% of maximal function calls                     1.3443969886
 POWELL| Reached  82% of maximal function calls                     1.3443818037
 POWELL| Reached  84% of maximal function calls                     1.3443818037
 POWELL| Reached  86% of maximal function calls                     1.3443818037
 POWELL| Reached  88% of maximal function calls                     1.3443818037
 POWELL| Reached  90% of maximal function calls                     1.3443511163
 POWELL| Reached  92% of maximal function calls                     1.3443483736
 POWELL| Reached  94% of maximal function calls                     1.3443483736
 POWELL| Reached  96% of maximal function calls                     1.3443483736
 POWELL| Reached  98% of maximal function calls                     1.3443482355
 POWELL| Reached 100% of maximal function calls                     1.3443482355
 POWELL| Reached 100% of maximal function calls                     1.3443482355
 POWELL| Exceeding maximum number of steps
 POWELL| Reached 100% of maximal function calls                     1.3443482355
 POWELL| RMS average of variables                                   0.0000085703
 POWELL| Start optimization  15 of total 100               rhobeg =   0.00015073
 POWELL| Inital value of function                                   1.3443482355
 POWELL| Reached   6% of maximal function calls                     1.3443482355
 POWELL| Reached   8% of maximal function calls                     1.3443482355
 POWELL| Reached  10% of maximal function calls                     1.3443482355
 POWELL| Reached  12% of maximal function calls                     1.3443482355
 POWELL| Reached  14% of maximal function calls                     1.3443482355
 POWELL| Reached  16% of maximal function calls                     1.3443482355
 POWELL| Reached  18% of maximal function calls                     1.3443482355
 POWELL| Reached  20% of maximal function calls                     1.3443482355
 POWELL| Reached  22% of maximal function calls                     1.3443482355
 POWELL| Reached  24% of maximal function calls                     1.3443482355
 POWELL| Reached  26% of maximal function calls                     1.3443482355
 POWELL| Reached  28% of maximal function calls                     1.3443482355
 POWELL| Reached  30% of maximal function calls                     1.3443482355
 POWELL| Reached  32% of maximal function calls                     1.3443482355
 POWELL| Reached  34% of maximal function calls                     1.3443482355
 POWELL| Reached  36% of maximal function calls                     1.3443482355
 POWELL| Reached  38% of maximal function calls                     1.3443482355
 POWELL| Reached  40% of maximal function calls                     1.3443482355
 POWELL| Reached  42% of maximal function calls                     1.3443482355
 POWELL| Reached  44% of maximal function calls                     1.3443482355
 POWELL| Reached  46% of maximal function calls                     1.3443482355
 POWELL| Reached  48% of maximal function calls                     1.3443482355
 POWELL| Reached  50% of maximal function calls                     1.3443482355
 POWELL| Reached  52% of maximal function calls                     1.3443482355
 POWELL| Reached  54% of maximal function calls                     1.3443482355
 POWELL| Reached  56% of maximal function calls                     1.3443482355
 POWELL| Reached  57% of maximal function calls                     1.3443482355
 POWELL| Reached  60% of maximal function calls                     1.3441976220
 POWELL| Reached  62% of maximal function calls                     1.3441385581
 POWELL| Reached  64% of maximal function calls                     1.3441385581
 POWELL| Reached  66% of maximal function calls                     1.3441385581
 POWELL| Reached  68% of maximal function calls                     1.3438694517
 POWELL| Reached  70% of maximal function calls                     1.3438448561
 POWELL| Reached  72% of maximal function calls                     1.3436720344
 POWELL| Reached  74% of maximal function calls                     1.3436038634
 POWELL| Reached  76% of maximal function calls                     1.3436038634
 POWELL| Reached  78% of maximal function calls                     1.3436038634
 POWELL| Reached  80% of maximal function calls                     1.3435455181
 POWELL| Reached  82% of maximal function calls                     1.3435452304
 POWELL| Reached  84% of maximal function calls                     1.3435439464
 POWELL| Reached  86% of maximal function calls                     1.3435439464
 POWELL| Reached  88% of maximal function calls                     1.3435439464
 POWELL| Reached  90% of maximal function calls                     1.3435431703
 POWELL| Reached  92% of maximal function calls                     1.3435431703
 POWELL| Reached  94% of maximal function calls                     1.3435431703
 POWELL| Reached  96% of maximal function calls                     1.3435431703
 POWELL| Reached  98% of maximal function calls                     1.3435123198
 POWELL| Reached 100% of maximal function calls                     1.3435123198
 POWELL| Reached 100% of maximal function calls                     1.3435123198
 POWELL| Exceeding maximum number of steps
 POWELL| Reached 100% of maximal function calls                     1.3435123198
 POWELL| RMS average of variables                                   0.0000083948
 POWELL| Start optimization  16 of total 100               rhobeg =   0.00014771
 POWELL| Inital value of function                                   1.3435123198
 POWELL| Reached   6% of maximal function calls                     1.3435123198
 POWELL| Reached   8% of maximal function calls                     1.3435123198
 POWELL| Reached  10% of maximal function calls                     1.3435123198
[...]
 POWELL| RMS average of variables                                   0.0000080087
 POWELL| Start optimization  98 of total 100               rhobeg =   0.00002818
 POWELL| Inital value of function                                   0.9429412956
 POWELL| Reached   6% of maximal function calls                     0.9429412956
 POWELL| Reached   8% of maximal function calls                     0.9402964971
 POWELL| Reached  10% of maximal function calls                     0.9346922899
 POWELL| Reached  12% of maximal function calls                     0.9346922899
 POWELL| Reached  14% of maximal function calls                     0.9346922899
 POWELL| Reached  16% of maximal function calls                     0.9346922899
 POWELL| Reached  18% of maximal function calls                     0.9346922899
 POWELL| Reached  20% of maximal function calls                     0.9346922899
 POWELL| Reached  22% of maximal function calls                     0.9346922899
 POWELL| Reached  24% of maximal function calls                     0.9346922899
 POWELL| Reached  26% of maximal function calls                     0.9346922899
 POWELL| Reached  28% of maximal function calls                     0.9346922899
 POWELL| Reached  30% of maximal function calls                     0.9346922899
 POWELL| Reached  32% of maximal function calls                     0.9346922899
 POWELL| Reached  34% of maximal function calls                     0.9346922899
 POWELL| Reached  36% of maximal function calls                     0.9346922899
 POWELL| Reached  38% of maximal function calls                     0.9186413028
 POWELL| Reached  40% of maximal function calls                     0.9186413028
 POWELL| Reached  42% of maximal function calls                     0.9186413028
 POWELL| Reached  44% of maximal function calls                     0.9186413028
 POWELL| Reached  46% of maximal function calls                     0.9186413028
 POWELL| Reached  48% of maximal function calls                     0.9186413028
 POWELL| Reached  50% of maximal function calls                     0.9186413028
 POWELL| Reached  52% of maximal function calls                     0.9186413028
 POWELL| Reached  54% of maximal function calls                     0.9186413028
 POWELL| Reached  56% of maximal function calls                     0.9186413028
 POWELL| Reached  57% of maximal function calls                     0.9186413028
 POWELL| Reached  60% of maximal function calls                     0.9186413028
 POWELL| Reached  62% of maximal function calls                     0.9186413028
 POWELL| Reached  64% of maximal function calls                     0.9186413028
 POWELL| Reached  66% of maximal function calls                     0.9185901138
 POWELL| Reached  68% of maximal function calls                     0.9185901138
 POWELL| Reached  70% of maximal function calls                     0.9181921633
 POWELL| Reached  72% of maximal function calls                     0.9179175980
 POWELL| Reached  74% of maximal function calls                     0.9179150031
 POWELL| Reached  76% of maximal function calls                     0.9179144909
 POWELL| Reached  78% of maximal function calls                     0.9179144909
 POWELL| Reached  80% of maximal function calls                     0.9179144909
 POWELL| Reached  82% of maximal function calls                     0.9179144909
 POWELL| Reached  84% of maximal function calls                     0.9179127916
 POWELL| Reached  86% of maximal function calls                     0.9179127916
 POWELL| Reached  88% of maximal function calls                     0.9179127916
 POWELL| Reached  90% of maximal function calls                     0.9179060133
 POWELL| Reached  92% of maximal function calls                     0.9178988927
 POWELL| Reached  94% of maximal function calls                     0.9178988927
 POWELL| Reached  96% of maximal function calls                     0.9178988927
 POWELL| Reached  98% of maximal function calls                     0.9178820841
 POWELL| Reached 100% of maximal function calls                     0.9178820841
 POWELL| Reached 100% of maximal function calls                     0.9178820841
 POWELL| Exceeding maximum number of steps
 POWELL| Reached 100% of maximal function calls                     0.9178820841
 POWELL| RMS average of variables                                   0.0000078210
 POWELL| Start optimization  99 of total 100               rhobeg =   0.00002762
 POWELL| Inital value of function                                   0.9178820841
 POWELL| Reached   6% of maximal function calls                     0.9178820841
 POWELL| Reached   8% of maximal function calls                     0.9178820841
 POWELL| Reached  10% of maximal function calls                     0.9178820841
 POWELL| Reached  12% of maximal function calls                     0.9178820841
 POWELL| Reached  14% of maximal function calls                     0.9157299512
 POWELL| Reached  16% of maximal function calls                     0.9157299512
 POWELL| Reached  18% of maximal function calls                     0.9131861595
 POWELL| Reached  20% of maximal function calls                     0.9131861595
 POWELL| Reached  22% of maximal function calls                     0.9027274727
 POWELL| Reached  24% of maximal function calls                     0.9027274727
 POWELL| Reached  26% of maximal function calls                     0.9027274727
 POWELL| Reached  28% of maximal function calls                     0.9027274727
 POWELL| Reached  30% of maximal function calls                     0.9027274727
 POWELL| Reached  32% of maximal function calls                     0.9027274727
 POWELL| Reached  34% of maximal function calls                     0.9027274727
 POWELL| Reached  36% of maximal function calls                     0.9027274727
 POWELL| Reached  38% of maximal function calls                     0.9027274727
 POWELL| Reached  40% of maximal function calls                     0.9027274727
 POWELL| Reached  42% of maximal function calls                     0.9027274727
 POWELL| Reached  44% of maximal function calls                     0.9027274727
 POWELL| Reached  46% of maximal function calls                     0.9027274727
 POWELL| Reached  48% of maximal function calls                     0.9027274727
 POWELL| Reached  50% of maximal function calls                     0.9027274727
 POWELL| Reached  52% of maximal function calls                     0.9027274727
 POWELL| Reached  54% of maximal function calls                     0.9027274727
 POWELL| Reached  56% of maximal function calls                     0.9027274727
 POWELL| Reached  57% of maximal function calls                     0.9013714856
 POWELL| Reached  60% of maximal function calls                     0.9013714856
 POWELL| Reached  62% of maximal function calls                     0.9013714856
 POWELL| Reached  64% of maximal function calls                     0.9013714856
 POWELL| Reached  66% of maximal function calls                     0.9012908244
 POWELL| Reached  68% of maximal function calls                     0.9011479094
 POWELL| Reached  70% of maximal function calls                     0.9011441970
 POWELL| Reached  72% of maximal function calls                     0.9011323651
 POWELL| Reached  74% of maximal function calls                     0.9011289470
 POWELL| Reached  76% of maximal function calls                     0.9011276258
 POWELL| Reached  78% of maximal function calls                     0.9010988585
 POWELL| Reached  80% of maximal function calls                     0.9010772246
 POWELL| Reached  82% of maximal function calls                     0.9010771582
 POWELL| Reached  84% of maximal function calls                     0.9010771582
 POWELL| Reached  86% of maximal function calls                     0.9010771582
 POWELL| Reached  88% of maximal function calls                     0.9010771582
 POWELL| Reached  90% of maximal function calls                     0.9010771582
 POWELL| Reached  92% of maximal function calls                     0.9010770367
 POWELL| Reached  94% of maximal function calls                     0.9010768154
 POWELL| Reached  96% of maximal function calls                     0.9010766763
 POWELL| Reached  98% of maximal function calls                     0.9010766763
 POWELL| Reached 100% of maximal function calls                     0.9010764723
 POWELL| Reached 100% of maximal function calls                     0.9010763822
 POWELL| Exceeding maximum number of steps
 POWELL| Reached 100% of maximal function calls                     0.9010763822
 POWELL| RMS average of variables                                   0.0000084861
 POWELL| Start optimization 100 of total 100               rhobeg =   0.00002707
 POWELL| Inital value of function                                   0.9010763822
 POWELL| Reached   6% of maximal function calls                     0.9010763822
 POWELL| Reached   8% of maximal function calls                     0.9010763822
 POWELL| Reached  10% of maximal function calls                     0.9010763822
 POWELL| Reached  12% of maximal function calls                     0.9010763822
 POWELL| Reached  14% of maximal function calls                     0.9001328412
 POWELL| Reached  16% of maximal function calls                     0.9001328412
 POWELL| Reached  18% of maximal function calls                     0.8980335715
 POWELL| Reached  20% of maximal function calls                     0.8980335715
 POWELL| Reached  22% of maximal function calls                     0.8896173623
 POWELL| Reached  24% of maximal function calls                     0.8896173623
 POWELL| Reached  26% of maximal function calls                     0.8896173623
 POWELL| Reached  28% of maximal function calls                     0.8896173623
 POWELL| Reached  30% of maximal function calls                     0.8896173623
 POWELL| Reached  32% of maximal function calls                     0.8896173623
 POWELL| Reached  34% of maximal function calls                     0.8896173623
 POWELL| Reached  36% of maximal function calls                     0.8896173623
 POWELL| Reached  38% of maximal function calls                     0.8896173623
 POWELL| Reached  40% of maximal function calls                     0.8896173623
 POWELL| Reached  42% of maximal function calls                     0.8896173623
 POWELL| Reached  44% of maximal function calls                     0.8896173623
 POWELL| Reached  46% of maximal function calls                     0.8896173623
 POWELL| Reached  48% of maximal function calls                     0.8896173623
 POWELL| Reached  50% of maximal function calls                     0.8896173623
 POWELL| Reached  52% of maximal function calls                     0.8896173623
 POWELL| Reached  54% of maximal function calls                     0.8896173623
 POWELL| Reached  56% of maximal function calls                     0.8896173623
 POWELL| Reached  57% of maximal function calls                     0.8886246249
 POWELL| Reached  60% of maximal function calls                     0.8886246249
 POWELL| Reached  62% of maximal function calls                     0.8886246249
 POWELL| Reached  64% of maximal function calls                     0.8886246249
 POWELL| Reached  66% of maximal function calls                     0.8886246249
 POWELL| Reached  68% of maximal function calls                     0.8885990607
 POWELL| Reached  70% of maximal function calls                     0.8885893142
 POWELL| Reached  72% of maximal function calls                     0.8883938641
 POWELL| Reached  74% of maximal function calls                     0.8882480585
 POWELL| Reached  76% of maximal function calls                     0.8882478658
 POWELL| Reached  78% of maximal function calls                     0.8882470529
 POWELL| Reached  80% of maximal function calls                     0.8882470529
 POWELL| Reached  82% of maximal function calls                     0.8882468379
 POWELL| Reached  84% of maximal function calls                     0.8882466464
 POWELL| Reached  86% of maximal function calls                     0.8882466464
 POWELL| Reached  88% of maximal function calls                     0.8882458649
 POWELL| Reached  90% of maximal function calls                     0.8882458649
 POWELL| Reached  92% of maximal function calls                     0.8882456654
 POWELL| Reached  94% of maximal function calls                     0.8882456654
 POWELL| Reached  96% of maximal function calls                     0.8882456654
 POWELL| Reached  98% of maximal function calls                     0.8882456654
 POWELL| Reached 100% of maximal function calls                     0.8882449790
 POWELL| Reached 100% of maximal function calls                     0.8882446612
 POWELL| Exceeding maximum number of steps
 POWELL| Reached 100% of maximal function calls                     0.8882446612
 POWELL| RMS average of variables                                   0.0000082697
 POWELL| Number of function evaluations                                       50
 POWELL| Final value of function                                    0.8882446612

 POWELL| Final errors of target values

 Reference configuration          1               Method number                1
    L    N    Occupation      Eigenvalue [eV]           dE [eV]          dCharge 
    0    1          2.00      -119.9031543049 SC  -0.007949[13]     0.000002[ X]
    0    2          2.00        -5.8059464422 VA   0.001093[82]     0.000676[ 0]
    0    3          0.00         0.8913243762 U1  -0.001505[ X]     0.000263[ X]
    0    4          0.00         6.2936867548 U2  -0.006183[ X]     0.000521[ 0]
    1    1          6.00       -77.2370649045 SC   0.003657[ 0]     0.000032[ X]
    1    2          0.00        -1.1246826691 U1  -0.000991[ X]    -0.000239[ X]
    1    3          0.00         2.7736932770 U2   0.000559[ X]    -0.000362[ 0]
    2    1          9.00        -9.5157557868 VA   0.000502[ 5]    -0.000205[ X]
    2    2          0.00         2.1944584365 U1   0.002332[ X]    -0.000148[ X]
    2    3          0.00         7.0239137445 U2   0.013852[ X]    -0.002054[ 0]
    3    1          0.00         4.2425167828 U1   0.000294[ X]    -0.000004[ X]
    s-states N=    1                   Wavefunction at r=0:         0.001458[ 0]
    s-states N=    2                   Wavefunction at r=0:        -0.334765[ 0]
    s-states N=    3                   Wavefunction at r=0:        -0.166154[ 0]
    s-states N=    4                   Wavefunction at r=0:         0.241282[ 0]

 Number of target values reached:                                      14 of  19



                             NORMAL TERMINATION OF     
                                                       
                           ****  ******  ****   ****   
                          **  ** ****** **  ** ******  
                          ******   **   **  ** **  **  
                          **  **   **    ****  **  **  


 -------------------------------------------------------------------------------
 -                                                                             -
 -                                DBCSR STATISTICS                             -
 -                                                                             -
 -------------------------------------------------------------------------------
 COUNTER                                    TOTAL       BLAS       SMM       ACC
 flops inhomo. stacks                           0       0.0%      0.0%      0.0%
 flops total                         0.000000E+00       0.0%      0.0%      0.0%
 flops max/rank                      0.000000E+00       0.0%      0.0%      0.0%
 matmuls inhomo. stacks                         0       0.0%      0.0%      0.0%
 matmuls total                                  0       0.0%      0.0%      0.0%
 number of processed stacks                     0       0.0%      0.0%      0.0%
 average stack size                                     0.0       0.0       0.0
 marketing flops                     0.000000E+00
 -------------------------------------------------------------------------------

 MEMORY| Estimated peak process memory [MiB]                                  49

 -------------------------------------------------------------------------------
 -                                                                             -
 -                           R E F E R E N C E S                               -
 -                                                                             -
 -------------------------------------------------------------------------------
 
 CP2K version 7.0 (Development Version), the CP2K developers group (2018).
 CP2K is freely available from https://www.cp2k.org/ .

 Schuett, Ole; Messmer, Peter; Hutter, Juerg; VandeVondele, Joost. 
 Electronic Structure Calculations on Graphics Processing Units, John Wiley & Sons, Ltd, 173-190 (2016). 
 GPU-Accelerated Sparse Matrix-Matrix Multiplication for Linear Scaling Density Functional Theory.
 http://dx.doi.org/10.1002/9781118670712.ch8


 Borstnik, U; VandeVondele, J; Weber, V; Hutter, J. 
 PARALLEL COMPUTING, 40 (5-6), 47-58 (2014). 
 Sparse matrix multiplication: The distributed block-compressed sparse
 row library.
 http://dx.doi.org/10.1016/j.parco.2014.03.012


 Hutter, J; Iannuzzi, M; Schiffmann, F; VandeVondele, J. 
 WILEY INTERDISCIPLINARY REVIEWS-COMPUTATIONAL MOLECULAR SCIENCE, 4 (1), 15-25 (2014). 
 CP2K: atomistic simulations of condensed matter systems.
 http://dx.doi.org/10.1002/wcms.1159


 Frigo, M; Johnson, SG. 
 PROCEEDINGS OF THE IEEE, 93 (2), 216-231 (2005). 
 The design and implementation of FFTW3.
 http://dx.doi.org/10.1109/JPROC.2004.840301


 Perdew, JP; Burke, K; Ernzerhof, M. 
 PHYSICAL REVIEW LETTERS, 77 (18), 3865-3868 (1996). 
 Generalized gradient approximation made simple.
 http://dx.doi.org/10.1103/PhysRevLett.77.3865


 -------------------------------------------------------------------------------
 -                                                                             -
 -                                T I M I N G                                  -
 -                                                                             -
 -------------------------------------------------------------------------------
 SUBROUTINE                       CALLS  ASD         SELF TIME        TOTAL TIME
                                MAXIMUM       AVERAGE  MAXIMUM  AVERAGE  MAXIMUM
 CP2K                                 1  1.0    0.002    0.002 1745.157 1745.157
 atom_code                            1  2.0    0.000    0.000 1745.155 1745.155
 atom_pseudo_opt                      1  3.0    8.125    8.125 1745.155 1745.155
 calculate_atom                    5713  4.0    0.016    0.016 1731.901 1731.901
 calculate_atom_restricted         5713  5.0  603.914  603.914 1731.884 1731.884
 calculate_atom_vxc_lda          357810  6.0 1055.688 1055.688 1127.971 1127.971
 xc_functional_eval              357810  7.0    0.809    0.809   71.977   71.977
 pbe_lda_eval                    357810  8.0   71.168   71.168   71.168   71.168
 -------------------------------------------------------------------------------

 The number of warnings for this run is : 0
 
 -------------------------------------------------------------------------------
  **** **** ******  **  PROGRAM ENDED AT                 2018-06-24 22:01:40.152
 ***** ** ***  *** **   PROGRAM RAN ON                                    tcpc01
 **    ****   ******    PROGRAM RAN BY                                    hutter
 ***** **    ** ** **   PROGRAM PROCESS ID                                  3311
  **** **  *******  **  PROGRAM STOPPED IN /data/hutter/pseudo/UZH2018/PBE/Cu/q1
                                           9
