
  **** **** ******  **  PROGRAM STARTED AT               2018-06-24 21:51:53.912
 ***** ** ***  *** **   PROGRAM STARTED ON                                tcpc01
 **    ****   ******    PROGRAM STARTED BY                                hutter
 ***** **    ** ** **   PROGRAM PROCESS ID                                  3615
  **** **  *******  **  PROGRAM STARTED IN /data/hutter/pseudo/UZH2018/PBE/Ga/q2
                                           1

 CP2K| version string:                    CP2K version 7.0 (Development Version)
 CP2K| source code revision number:                                    svn:18485
 CP2K| cp2kflags: libint fftw3 libxc libderiv_max_am1=5 libint_max_am=6 spglib  
 CP2K| is freely available from                            https://www.cp2k.org/
 CP2K| Program compiled at                         Wed Jun 20 10:41:43 CEST 2018
 CP2K| Program compiled on                                                tcpc01
 CP2K| Program compiled for                                                local
 CP2K| Data directory path                        /data/hutter/CURRENT/cp2k/data
 CP2K| Input file name                                                    Ga.inp

 GLOBAL| Method name                                                        ATOM
 GLOBAL| Project name                                                    PROJECT
 GLOBAL| Preferred FFT library                                             FFTW3
 GLOBAL| Preferred diagonalization lib.                                       SL
 GLOBAL| Run type                                                   ENERGY_FORCE
 GLOBAL| All-to-all communication in single precision                          F
 GLOBAL| FFTs using library dependent lengths                                  F
 GLOBAL| Global print level                                               MEDIUM
 GLOBAL| Total number of message passing processes                             1
 GLOBAL| Number of threads for this process                                    1
 GLOBAL| This output is from process                                           0
 GLOBAL| CPU model name :  Intel(R) Xeon(R) CPU           X5570  @ 2.93GHz

 MEMORY| system memory details [Kb]
 MEMORY|                        rank 0           min           max       average
 MEMORY| MemTotal             37009584      37009584      37009584      37009584
 MEMORY| MemFree              32314136      32314136      32314136      32314136
 MEMORY| Buffers                301156        301156        301156        301156
 MEMORY| Cached                2033468       2033468       2033468       2033468
 MEMORY| Slab                   272488        272488        272488        272488
 MEMORY| SReclaimable           203760        203760        203760        203760
 MEMORY| MemLikelyFree        34852520      34852520      34852520      34852520


 *** Fundamental physical constants (SI units) ***

 *** Literature: B. J. Mohr and B. N. Taylor,
 ***             CODATA recommended values of the fundamental physical
 ***             constants: 2006, Web Version 5.1
 ***             http://physics.nist.gov/constants

 Speed of light in vacuum [m/s]                             2.99792458000000E+08
 Magnetic constant or permeability of vacuum [N/A**2]       1.25663706143592E-06
 Electric constant or permittivity of vacuum [F/m]          8.85418781762039E-12
 Planck constant (h) [J*s]                                  6.62606896000000E-34
 Planck constant (h-bar) [J*s]                              1.05457162825177E-34
 Elementary charge [C]                                      1.60217648700000E-19
 Electron mass [kg]                                         9.10938215000000E-31
 Electron g factor [ ]                                     -2.00231930436220E+00
 Proton mass [kg]                                           1.67262163700000E-27
 Fine-structure constant                                    7.29735253760000E-03
 Rydberg constant [1/m]                                     1.09737315685270E+07
 Avogadro constant [1/mol]                                  6.02214179000000E+23
 Boltzmann constant [J/K]                                   1.38065040000000E-23
 Atomic mass unit [kg]                                      1.66053878200000E-27
 Bohr radius [m]                                            5.29177208590000E-11

 *** Conversion factors ***

 [u] -> [a.u.]                                              1.82288848426455E+03
 [Angstrom] -> [Bohr] = [a.u.]                              1.88972613288564E+00
 [a.u.] = [Bohr] -> [Angstrom]                              5.29177208590000E-01
 [a.u.] -> [s]                                              2.41888432650478E-17
 [a.u.] -> [fs]                                             2.41888432650478E-02
 [a.u.] -> [J]                                              4.35974393937059E-18
 [a.u.] -> [N]                                              8.23872205491840E-08
 [a.u.] -> [K]                                              3.15774647902944E+05
 [a.u.] -> [kJ/mol]                                         2.62549961709828E+03
 [a.u.] -> [kcal/mol]                                       6.27509468713739E+02
 [a.u.] -> [Pa]                                             2.94210107994716E+13
 [a.u.] -> [bar]                                            2.94210107994716E+08
 [a.u.] -> [atm]                                            2.90362800883016E+08
 [a.u.] -> [eV]                                             2.72113838565563E+01
 [a.u.] -> [Hz]                                             6.57968392072181E+15
 [a.u.] -> [1/cm] (wave numbers)                            2.19474631370540E+05
 [a.u./Bohr**2] -> [1/cm]                                   5.14048714338585E+03
 
 DBCSR| Multiplication driver                                               BLAS
 DBCSR| Multrec recursion limit                                              512
 DBCSR| Multiplication stack size                                           1000
 DBCSR| Maximum elements for images                                    UNLIMITED
 DBCSR| Multiplicative factor virtual images                                   1
 DBCSR| Multiplication size stacks                                             3



                           ****  ******  ****   ****   
                          **  ** ****** **  ** ******  
                          ******   **   **  ** **  **  
                          **  **   **    ****  **  **  
                                                       
                             University of Zurich      
                                 2009 - 2015           
                                                       
                                 Version 0.0           
                                                                   


 Atomic Energy Calculation             Gallium [Ga]          Atomic number:   31


 *******************************************************************************
 ************************** Calculate Reference States *************************
 *******************************************************************************

 METHOD    | Restricted Kohn-Sham Calculation
 METHOD    | Relativistic Calculation using Douglas-Kroll 3rd order
 FUNCTIONAL| ROUTINE=NEW
 FUNCTIONAL| PBE:
 FUNCTIONAL| J.P.Perdew, K.Burke, M.Ernzerhof, Phys. Rev. Letter, vol. 77, n 18,
 FUNCTIONAL|  pp. 3865-3868, (1996){spin unpolarized}                           

 Electronic structure
    Total number of core electrons                                          0.00
    Total number of valence electrons                                      31.00
    Total number of electrons                                              31.00
    Multiplicity                                                   not specified
    S      2.00  2.00  2.00  2.00
    P      6.00  6.00  1.00
    D     10.00


 *******************************************************************************
                  Iteration          Convergence                     Energy [au]
 *******************************************************************************
                          1         31.4016                   -1833.487957056499
                          2         9.86779                   -1750.337186228983
                          3         17.1176                   -1895.370750864163
                          4         9.71566                   -1923.992836122482
                          5         4.46604                   -1938.671114925223
                          6        0.509821                   -1943.517720873282
                          7        0.213318                   -1943.590410234842
                          8        0.508314E-02               -1943.600675398431
                          9        0.534146E-02               -1943.600674956782
                         10        0.119184E-03               -1943.600686887725
                         11        0.118585E-04               -1943.600686916547
                         12        0.200251E-06               -1943.600686916725
                         13        0.143836E-06               -1943.600686916734
                         14        0.100166E-06               -1943.600686916723
                         15        0.186839E-07               -1943.600686916726

 Energy components [Hartree]           Total Energy ::        -1943.600686916726
                                        Band Energy ::        -1126.262777080520
                                     Kinetic Energy ::         2056.758078565486
                                   Potential Energy ::        -4000.358765482212
                                      Virial (-V/T) ::            1.944982643886
                                        Core Energy ::        -2707.880180825286
                                          XC Energy ::          -75.778116459296
                                     Coulomb Energy ::          840.057610367857
                                        Confinement ::            0.000000254609

 Orbital energies  State     L     Occupation   Energy[a.u.]          Energy[eV]

                       1     0          2.000    -375.550696       -10219.254138
                       2     0          2.000     -46.345111        -1261.114618
                       3     0          2.000      -5.437098         -147.950966
                       4     0          2.000      -0.327334           -8.907212
                       5     0          0.000       0.010351            0.281675
                       6     0          0.000       0.217424            5.916411

                       1     1          6.000     -40.342869        -1097.785292
                       2     1          6.000      -3.628351          -98.732439
                       3     1          1.000      -0.093400           -2.541539
                       4     1          0.000       0.069918            1.902568
                       5     1          0.000       0.307367            8.363879

                       1     2         10.000      -0.702158          -19.106696
                       2     2          0.000       0.062728            1.706924
                       3     2          0.000       0.216621            5.894552

                       1     3          0.000       0.136634            3.718011


 Total Electron Density at R=0:                                     47505.116322

 *******************************************************************************
 ********************* Optimize Pseudopotential Parameters *********************
 *******************************************************************************

 POWELL| Start optimization procedure

 POWELL| Total number of parameters in optimization                           14

 POWELL| Initial errors of target values

 Reference configuration          1               Method number                1
    L    N    Occupation      Eigenvalue [eV]           dE [eV]          dCharge 
    0    1          2.00      -147.9420571524 SC   0.008909[ 2]    -0.000000[ X]
    0    2          2.00        -8.9089084847 VA  -0.001697[23]    -0.000632[ 0]
    0    3          0.00         0.2819984857 U1   0.000323[ X]     0.000058[ X]
    0    4          0.00         5.9169080980 U2   0.000497[ X]     0.000144[ 0]
    1    1          6.00       -98.7276194380 SC   0.004820[ 0]    -0.000002[ X]
    1    2          1.00        -2.5443409483 VA  -0.002802[74]    -0.000884[ 0]
    1    3          0.00         1.9043506012 U1   0.001782[ X]    -0.000464[ X]
    1    4          0.00         8.3734031481 U2   0.009524[ X]    -0.000594[ 0]
    2    1         10.00       -19.1071334947 VA  -0.000438[ 0]    -0.000662[ 0]
    2    2          0.00         1.7125980519 U1   0.005674[ 0]    -0.002296[ X]
    2    3          0.00         5.9280879765 U2   0.033536[ 0]    -0.004956[ 0]
    3    1          0.00         3.7176941770 U1  -0.000317[ X]    -0.000000[ X]

 Number of target values reached:                                      11 of  21

 POWELL| Start optimization   1 of total  50               rhobeg =   0.00020000
 POWELL| Inital value of function                                   8.7664685298
 POWELL| Reached   1% of maximal function calls                     8.7664685298
 POWELL| Reached   2% of maximal function calls                     8.7664685298
 POWELL| Reached   3% of maximal function calls                     8.7664685298
 POWELL| Reached   4% of maximal function calls                     8.7602562951
 POWELL| Reached   4% of maximal function calls                     8.7602562951
 POWELL| Reached   5% of maximal function calls                     8.7602562951
 POWELL| Reached   6% of maximal function calls                     8.7602562951
 POWELL| Reached   7% of maximal function calls                     8.7602562951
 POWELL| Reached   8% of maximal function calls                     8.7602562951
 POWELL| Reached   8% of maximal function calls                     8.7602562951
 POWELL| Reached   9% of maximal function calls                     8.7602562951
 POWELL| Reached  10% of maximal function calls                     8.7602562951
 POWELL| Reached  11% of maximal function calls                     8.7602562951
 POWELL| Reached  12% of maximal function calls                     8.7602562951
 POWELL| Reached  12% of maximal function calls                     8.7602562951
 POWELL| Reached  13% of maximal function calls                     8.7598336737
 POWELL| Reached  14% of maximal function calls                     8.7546579214
 POWELL| Reached  15% of maximal function calls                     8.7541134708
 POWELL| Reached  16% of maximal function calls                     8.7538656385
 POWELL| Reached  16% of maximal function calls                     8.7538558580
 POWELL| Reached  17% of maximal function calls                     8.7538535222
 POWELL| Reached  18% of maximal function calls                     8.7538535222
 POWELL| Reached  19% of maximal function calls                     8.7538535222
 POWELL| Reached  20% of maximal function calls                     8.7538535222
 POWELL| Reached  20% of maximal function calls                     8.7538499549
 POWELL| Reached  21% of maximal function calls                     8.7538452696
 POWELL| Reached  22% of maximal function calls                     8.7538429310
 POWELL| Reached  23% of maximal function calls                     8.7538394787
 POWELL| Reached  24% of maximal function calls                     8.7538291774
 POWELL| Reached  24% of maximal function calls                     8.7537930161
 POWELL| Reached  25% of maximal function calls                     8.7536508042
 POWELL| Reached  26% of maximal function calls                     8.7531209482
 POWELL| Reached  27% of maximal function calls                     8.7523118085
 POWELL| Reached  28% of maximal function calls                     8.7513441031
 POWELL| Reached  28% of maximal function calls                     8.7507852238
 POWELL| Reached  29% of maximal function calls                     8.7505064154
 POWELL| Reached  30% of maximal function calls                     8.7503462073
 POWELL| Reached  31% of maximal function calls                     8.7501847393
 POWELL| Reached  32% of maximal function calls                     8.7501606286
 POWELL| Reached  32% of maximal function calls                     8.7501596203
 POWELL| Reached  33% of maximal function calls                     8.7501479400
 POWELL| Reached  34% of maximal function calls                     8.7501431546
 POWELL| Reached  35% of maximal function calls                     8.7501430612
 POWELL| Reached  36% of maximal function calls                     8.7501430612
 POWELL| Reached  36% of maximal function calls                     8.7501418662
 POWELL| Reached  37% of maximal function calls                     8.7501418662
 POWELL| Reached  38% of maximal function calls                     8.7501364565
 POWELL| Reached  39% of maximal function calls                     8.7501259641
 POWELL| Reached  40% of maximal function calls                     8.7501163305
 POWELL| Reached  40% of maximal function calls                     8.7501137865
 POWELL| Reached  41% of maximal function calls                     8.7501065031
 POWELL| Reached  42% of maximal function calls                     8.7500984326
 POWELL| Reached  43% of maximal function calls                     8.7500813985
 POWELL| Reached  44% of maximal function calls                     8.7500111689
 POWELL| Reached  44% of maximal function calls                     8.7497390556
 POWELL| Reached  45% of maximal function calls                     8.7487820958
 POWELL| Reached  46% of maximal function calls                     8.7487820958
 POWELL| Reached  47% of maximal function calls                     8.7485437881
 POWELL| Reached  48% of maximal function calls                     8.7484851795
 POWELL| Reached  48% of maximal function calls                     8.7484535496
 POWELL| Reached  49% of maximal function calls                     8.7484472823
 POWELL| Reached  50% of maximal function calls                     8.7484372077
 POWELL| Reached  51% of maximal function calls                     8.7484317325
 POWELL| Reached  52% of maximal function calls                     8.7484307474
 POWELL| Reached  52% of maximal function calls                     8.7484243709
 POWELL| Reached  53% of maximal function calls                     8.7484198185
 POWELL| Reached  54% of maximal function calls                     8.7484166649
 POWELL| Reached  55% of maximal function calls                     8.7484149195
 POWELL| Reached  56% of maximal function calls                     8.7484109121
 POWELL| Reached  56% of maximal function calls                     8.7484077732
 POWELL| Reached  57% of maximal function calls                     8.7484007974
 POWELL| Reached  58% of maximal function calls                     8.7483961244
 POWELL| Reached  59% of maximal function calls                     8.7483944278
 POWELL| Reached  60% of maximal function calls                     8.7483669179
 POWELL| Reached  60% of maximal function calls                     8.7483301393
 POWELL| Reached  61% of maximal function calls                     8.7483193316
 POWELL| Reached  62% of maximal function calls                     8.7483159952
 POWELL| Reached  63% of maximal function calls                     8.7483140838
 POWELL| Reached  64% of maximal function calls                     8.7483115427
 POWELL| Reached  64% of maximal function calls                     8.7483085524
 POWELL| Reached  65% of maximal function calls                     8.7483069426
 POWELL| Reached  66% of maximal function calls                     8.7483069426
 POWELL| Reached  67% of maximal function calls                     8.7483011948
 POWELL| Reached  68% of maximal function calls                     8.7482971159
 POWELL| Reached  68% of maximal function calls                     8.7482929571
 POWELL| Reached  69% of maximal function calls                     8.7482878073
 POWELL| Reached  70% of maximal function calls                     8.7482844740
 POWELL| Reached  71% of maximal function calls                     8.7482813250
 POWELL| Reached  72% of maximal function calls                     8.7482724486
 POWELL| Reached  72% of maximal function calls                     8.7482685647
 POWELL| Reached  73% of maximal function calls                     8.7482633687
 POWELL| Reached  74% of maximal function calls                     8.7482602269
 POWELL| Reached  75% of maximal function calls                     8.7482537861
 POWELL| Reached  76% of maximal function calls                     8.7482473110
 POWELL| Reached  76% of maximal function calls                     8.7482406249
 POWELL| Reached  77% of maximal function calls                     8.7482385016
 POWELL| Reached  78% of maximal function calls                     8.7482359572
 POWELL| Reached  79% of maximal function calls                     8.7482301821
 POWELL| Reached  80% of maximal function calls                     8.7482292564
 POWELL| Reached  80% of maximal function calls                     8.7482246166
 POWELL| Reached  81% of maximal function calls                     8.7482204100
 POWELL| Reached  82% of maximal function calls                     8.7482195895
 POWELL| Reached  83% of maximal function calls                     8.7482193947
 POWELL| Reached  84% of maximal function calls                     8.7482155505
 POWELL| Reached  84% of maximal function calls                     8.7482092821
 POWELL| Reached  85% of maximal function calls                     8.7482039952
 POWELL| Reached  86% of maximal function calls                     8.7481948808
 POWELL| Reached  87% of maximal function calls                     8.7481915931
 POWELL| Reached  88% of maximal function calls                     8.7481866703
 POWELL| Reached  88% of maximal function calls                     8.7481820175
 POWELL| Reached  89% of maximal function calls                     8.7481746854
 POWELL| Reached  90% of maximal function calls                     8.7481720444
 POWELL| Reached  91% of maximal function calls                     8.7481697533
 POWELL| Reached  92% of maximal function calls                     8.7481613164
 POWELL| Reached  92% of maximal function calls                     8.7481571806
 POWELL| Reached  93% of maximal function calls                     8.7481516697
 POWELL| Reached  94% of maximal function calls                     8.7481507276
 POWELL| Reached  95% of maximal function calls                     8.7481476948
 POWELL| Reached  96% of maximal function calls                     8.7481468884
 POWELL| Reached  96% of maximal function calls                     8.7481418001
 POWELL| Reached  97% of maximal function calls                     8.7481384905
 POWELL| Reached  98% of maximal function calls                     8.7481242201
 POWELL| Reached  99% of maximal function calls                     8.7480696440
 POWELL| Reached 100% of maximal function calls                     8.7479970142
 POWELL| Reached 100% of maximal function calls                     8.7479946172
 POWELL| Exceeding maximum number of steps
 POWELL| Reached 100% of maximal function calls                     8.7479946172
 POWELL| RMS average of variables                                   0.0000539470
 POWELL| Start optimization   2 of total  50               rhobeg =   0.00019600
 POWELL| Inital value of function                                   8.7479946172
 POWELL| Reached   1% of maximal function calls                     8.7479946172
 POWELL| Reached   2% of maximal function calls                     8.7479946172
 POWELL| Reached   3% of maximal function calls                     8.7479946172
 POWELL| Reached   4% of maximal function calls                     8.7479946172
 POWELL| Reached   4% of maximal function calls                     8.7479946172
 POWELL| Reached   5% of maximal function calls                     8.7479946172
 POWELL| Reached   6% of maximal function calls                     8.7479946172
 POWELL| Reached   7% of maximal function calls                     8.7479946172
 POWELL| Reached   8% of maximal function calls                     8.7479946172
 POWELL| Reached   8% of maximal function calls                     8.7479946172
 POWELL| Reached   9% of maximal function calls                     8.7479946172
 POWELL| Reached  10% of maximal function calls                     8.7479946172
 POWELL| Reached  11% of maximal function calls                     8.7479946172
 POWELL| Reached  12% of maximal function calls                     8.7479946172
 POWELL| Reached  12% of maximal function calls                     8.7479946172
 POWELL| Reached  13% of maximal function calls                     8.7479946172
 POWELL| Reached  14% of maximal function calls                     8.7412099345
 POWELL| Reached  15% of maximal function calls                     8.7411161500
 POWELL| Reached  16% of maximal function calls                     8.7411161500
 POWELL| Reached  16% of maximal function calls                     8.7411161500
 POWELL| Reached  17% of maximal function calls                     8.7411161500
 POWELL| Reached  18% of maximal function calls                     8.7410724368
 POWELL| Reached  19% of maximal function calls                     8.7410724368
 POWELL| Reached  20% of maximal function calls                     8.7410670584
 POWELL| Reached  20% of maximal function calls                     8.7410621615
 POWELL| Reached  21% of maximal function calls                     8.7410357947
 POWELL| Reached  22% of maximal function calls                     8.7410273156
 POWELL| Reached  23% of maximal function calls                     8.7408946208
 POWELL| Reached  24% of maximal function calls                     8.7406418455
 POWELL| Reached  24% of maximal function calls                     8.7405586685
 POWELL| Reached  25% of maximal function calls                     8.7405319982
 POWELL| Reached  26% of maximal function calls                     8.7404942441
 POWELL| Reached  27% of maximal function calls                     8.7404292738
 POWELL| Reached  28% of maximal function calls                     8.7403854625
 POWELL| Reached  28% of maximal function calls                     8.7403588970
 POWELL| Reached  29% of maximal function calls                     8.7402930477
 POWELL| Reached  30% of maximal function calls                     8.7402781827
 POWELL| Reached  31% of maximal function calls                     8.7402330065
 POWELL| Reached  32% of maximal function calls                     8.7401960960
 POWELL| Reached  32% of maximal function calls                     8.7401369919
 POWELL| Reached  33% of maximal function calls                     8.7400778326
 POWELL| Reached  34% of maximal function calls                     8.7400212494
 POWELL| Reached  35% of maximal function calls                     8.7399344224
 POWELL| Reached  36% of maximal function calls                     8.7399076496
 POWELL| Reached  36% of maximal function calls                     8.7398412352
 POWELL| Reached  37% of maximal function calls                     8.7397912233
 POWELL| Reached  38% of maximal function calls                     8.7397912233
 POWELL| Reached  39% of maximal function calls                     8.7397912233
 POWELL| Reached  40% of maximal function calls                     8.7397517648
 POWELL| Reached  40% of maximal function calls                     8.7397001165
 POWELL| Reached  41% of maximal function calls                     8.7396794600
 POWELL| Reached  42% of maximal function calls                     8.7395958301
 POWELL| Reached  43% of maximal function calls                     8.7395680122
 POWELL| Reached  44% of maximal function calls                     8.7395318489
 POWELL| Reached  44% of maximal function calls                     8.7394880471
 POWELL| Reached  45% of maximal function calls                     8.7394350320
 POWELL| Reached  46% of maximal function calls                     8.7393654231
 POWELL| Reached  47% of maximal function calls                     8.7393153088
 POWELL| Reached  48% of maximal function calls                     8.7393067477
 POWELL| Reached  48% of maximal function calls                     8.7392765709
 POWELL| Reached  49% of maximal function calls                     8.7392524141
 POWELL| Reached  50% of maximal function calls                     8.7392066793
 POWELL| Reached  51% of maximal function calls                     8.7391204675
 POWELL| Reached  52% of maximal function calls                     8.7391064755
 POWELL| Reached  52% of maximal function calls                     8.7390830081
 POWELL| Reached  53% of maximal function calls                     8.7390338985
 POWELL| Reached  54% of maximal function calls                     8.7390058634
 POWELL| Reached  55% of maximal function calls                     8.7389724017
 POWELL| Reached  56% of maximal function calls                     8.7389587254
 POWELL| Reached  56% of maximal function calls                     8.7389060537
 POWELL| Reached  57% of maximal function calls                     8.7388956782
 POWELL| Reached  58% of maximal function calls                     8.7388152678
 POWELL| Reached  59% of maximal function calls                     8.7387450706
 POWELL| Reached  60% of maximal function calls                     8.7387370672
 POWELL| Reached  60% of maximal function calls                     8.7387319615
 POWELL| Reached  61% of maximal function calls                     8.7387002847
 POWELL| Reached  62% of maximal function calls                     8.7386679259
 POWELL| Reached  63% of maximal function calls                     8.7386371649
 POWELL| Reached  64% of maximal function calls                     8.7385971628
 POWELL| Reached  64% of maximal function calls                     8.7385399037
 POWELL| Reached  65% of maximal function calls                     8.7385168605
 POWELL| Reached  66% of maximal function calls                     8.7385026209
 POWELL| Reached  67% of maximal function calls                     8.7384371348
 POWELL| Reached  68% of maximal function calls                     8.7384218395
 POWELL| Reached  68% of maximal function calls                     8.7383760678
 POWELL| Reached  69% of maximal function calls                     8.7383472044
 POWELL| Reached  70% of maximal function calls                     8.7383076549
 POWELL| Reached  71% of maximal function calls                     8.7382711864
 POWELL| Reached  72% of maximal function calls                     8.7382246450
 POWELL| Reached  72% of maximal function calls                     8.7382074718
 POWELL| Reached  73% of maximal function calls                     8.7381951352
 POWELL| Reached  74% of maximal function calls                     8.7381195381
 POWELL| Reached  75% of maximal function calls                     8.7380792342
 POWELL| Reached  76% of maximal function calls                     8.7380546897
 POWELL| Reached  76% of maximal function calls                     8.7380165451
 POWELL| Reached  77% of maximal function calls                     8.7379100380
 POWELL| Reached  78% of maximal function calls                     8.7373915951
 POWELL| Reached  79% of maximal function calls                     8.7373753174
 POWELL| Reached  80% of maximal function calls                     8.7372298080
 POWELL| Reached  80% of maximal function calls                     8.7372209147
 POWELL| Reached  81% of maximal function calls                     8.7372099770
 POWELL| Reached  82% of maximal function calls                     8.7371958851
 POWELL| Reached  83% of maximal function calls                     8.7371916419
 POWELL| Reached  84% of maximal function calls                     8.7371580884
 POWELL| Reached  84% of maximal function calls                     8.7371510878
 POWELL| Reached  85% of maximal function calls                     8.7370810331
 POWELL| Reached  86% of maximal function calls                     8.7370387596
 POWELL| Reached  87% of maximal function calls                     8.7370116393
 POWELL| Reached  88% of maximal function calls                     8.7369533648
 POWELL| Reached  88% of maximal function calls                     8.7369067748
 POWELL| Reached  89% of maximal function calls                     8.7368075936
 POWELL| Reached  90% of maximal function calls                     8.7367629880
 POWELL| Reached  91% of maximal function calls                     8.7367062524
 POWELL| Reached  92% of maximal function calls                     8.7366674665
 POWELL| Reached  92% of maximal function calls                     8.7366392688
 POWELL| Reached  93% of maximal function calls                     8.7365999905
 POWELL| Reached  94% of maximal function calls                     8.7365404798
 POWELL| Reached  95% of maximal function calls                     8.7365109707
 POWELL| Reached  96% of maximal function calls                     8.7364992031
 POWELL| Reached  96% of maximal function calls                     8.7364992031
 POWELL| Reached  97% of maximal function calls                     8.7364992031
 POWELL| Reached  98% of maximal function calls                     8.7364347954
 POWELL| Reached  99% of maximal function calls                     8.7364009051
 POWELL| Reached 100% of maximal function calls                     8.7363618248
 POWELL| Reached 100% of maximal function calls                     8.7363511214
 POWELL| Exceeding maximum number of steps
 POWELL| Reached 100% of maximal function calls                     8.7363511214
 POWELL| RMS average of variables                                   0.0000011844
 POWELL| Start optimization   3 of total  50               rhobeg =   0.00019208
 POWELL| Inital value of function                                   8.7363511214
 POWELL| Reached   1% of maximal function calls                     8.7363511214
 POWELL| Reached   2% of maximal function calls                     8.7363511214
 POWELL| Reached   3% of maximal function calls                     8.7363511214
 POWELL| Reached   4% of maximal function calls                     8.7363511214
 POWELL| Reached   4% of maximal function calls                     8.7363511214
 POWELL| Reached   5% of maximal function calls                     8.7363511214
 POWELL| Reached   6% of maximal function calls                     8.7363511214
 POWELL| Reached   7% of maximal function calls                     8.7363511214
 POWELL| Reached   8% of maximal function calls                     8.7363511214
 POWELL| Reached   8% of maximal function calls                     8.7363511214
 POWELL| Reached   9% of maximal function calls                     8.7363511214
 POWELL| Reached  10% of maximal function calls                     8.7322682294
 POWELL| Reached  11% of maximal function calls                     8.7322682294
 POWELL| Reached  12% of maximal function calls                     8.7322682294
 POWELL| Reached  12% of maximal function calls                     8.7322682294
 POWELL| Reached  13% of maximal function calls                     8.7317315115
 POWELL| Reached  14% of maximal function calls                     8.7317315115
 POWELL| Reached  15% of maximal function calls                     8.7304972455
 POWELL| Reached  16% of maximal function calls                     8.7304912564
 POWELL| Reached  16% of maximal function calls                     8.7304787603
 POWELL| Reached  17% of maximal function calls                     8.7304719249
 POWELL| Reached  18% of maximal function calls                     8.7304709426
 POWELL| Reached  19% of maximal function calls                     8.7304709426
 POWELL| Reached  20% of maximal function calls                     8.7304619147
 POWELL| Reached  20% of maximal function calls                     8.7304619147
 POWELL| Reached  21% of maximal function calls                     8.7304605701
 POWELL| Reached  22% of maximal function calls                     8.7304603900
 POWELL| Reached  23% of maximal function calls                     8.7304600769
 POWELL| Reached  24% of maximal function calls                     8.7304597715
 POWELL| Reached  24% of maximal function calls                     8.7304470712
 POWELL| Reached  25% of maximal function calls                     8.7303963704
 POWELL| Reached  26% of maximal function calls                     8.7303287962
 POWELL| Reached  27% of maximal function calls                     8.7303020670
 POWELL| Reached  28% of maximal function calls                     8.7302995432
 POWELL| Reached  28% of maximal function calls                     8.7302968263
 POWELL| Reached  29% of maximal function calls                     8.7302964724
 POWELL| Reached  30% of maximal function calls                     8.7302963620
 POWELL| Reached  31% of maximal function calls                     8.7302963620
 POWELL| Reached  32% of maximal function calls                     8.7302963620
 POWELL| Reached  32% of maximal function calls                     8.7302958089
 POWELL| Reached  33% of maximal function calls                     8.7302958089
 POWELL| Reached  34% of maximal function calls                     8.7302958089
 POWELL| Reached  35% of maximal function calls                     8.7302926473
 POWELL| Reached  36% of maximal function calls                     8.7302924857
 POWELL| Reached  36% of maximal function calls                     8.7302887960
 POWELL| Reached  37% of maximal function calls                     8.7302847598
 POWELL| Reached  38% of maximal function calls                     8.7302807745
 POWELL| Reached  39% of maximal function calls                     8.7302786328
 POWELL| Reached  40% of maximal function calls                     8.7302771825
 POWELL| Reached  40% of maximal function calls                     8.7302761516
 POWELL| Reached  41% of maximal function calls                     8.7302746556
 POWELL| Reached  42% of maximal function calls                     8.7302721970
 POWELL| Reached  43% of maximal function calls                     8.7302712204
 POWELL| Reached  44% of maximal function calls                     8.7302695235
 POWELL| Reached  44% of maximal function calls                     8.7302677008
 POWELL| Reached  45% of maximal function calls                     8.7302649697
 POWELL| Reached  46% of maximal function calls                     8.7302639712
 POWELL| Reached  47% of maximal function calls                     8.7302609737
 POWELL| Reached  48% of maximal function calls                     8.7302598338
 POWELL| Reached  48% of maximal function calls                     8.7302550793
 POWELL| Reached  49% of maximal function calls                     8.7302511821
 POWELL| Reached  50% of maximal function calls                     8.7302493116
 POWELL| Reached  51% of maximal function calls                     8.7302482414
 POWELL| Reached  52% of maximal function calls                     8.7302482169
 POWELL| Reached  52% of maximal function calls                     8.7302427502
 POWELL| Reached  53% of maximal function calls                     8.7302175879
 POWELL| Reached  54% of maximal function calls                     8.7302167644
 POWELL| Reached  55% of maximal function calls                     8.7302092041
 POWELL| Reached  56% of maximal function calls                     8.7302059964
 POWELL| Reached  56% of maximal function calls                     8.7302047757
 POWELL| Reached  57% of maximal function calls                     8.7302031287
 POWELL| Reached  58% of maximal function calls                     8.7302027127
 POWELL| Reached  59% of maximal function calls                     8.7302026021
 POWELL| Reached  60% of maximal function calls                     8.7302001705
 POWELL| Reached  60% of maximal function calls                     8.7301978285
 POWELL| Reached  61% of maximal function calls                     8.7301958430
 POWELL| Reached  62% of maximal function calls                     8.7301940567
 POWELL| Reached  63% of maximal function calls                     8.7301926055
 POWELL| Reached  64% of maximal function calls                     8.7301909002
 POWELL| Reached  64% of maximal function calls                     8.7301876571
 POWELL| Reached  65% of maximal function calls                     8.7301856853
 POWELL| Reached  66% of maximal function calls                     8.7301852802
 POWELL| Reached  67% of maximal function calls                     8.7301832841
 POWELL| Reached  68% of maximal function calls                     8.7301816183
 POWELL| Reached  68% of maximal function calls                     8.7301799527
 POWELL| Reached  69% of maximal function calls                     8.7301774924
 POWELL| Reached  70% of maximal function calls                     8.7301774924
 POWELL| Reached  71% of maximal function calls                     8.7301755669
 POWELL| Reached  72% of maximal function calls                     8.7301727599
 POWELL| Reached  72% of maximal function calls                     8.7301727599
 POWELL| Reached  73% of maximal function calls                     8.7301715335
 POWELL| Reached  74% of maximal function calls                     8.7301699006
 POWELL| Reached  75% of maximal function calls                     8.7301678992
 POWELL| Reached  76% of maximal function calls                     8.7301655536
 POWELL| Reached  76% of maximal function calls                     8.7301625951
 POWELL| Reached  77% of maximal function calls                     8.7301589495
 POWELL| Reached  78% of maximal function calls                     8.7301571954
 POWELL| Reached  79% of maximal function calls                     8.7301543531
 POWELL| Reached  80% of maximal function calls                     8.7301526140
 POWELL| Reached  80% of maximal function calls                     8.7301501508
 POWELL| Reached  81% of maximal function calls                     8.7301486697
 POWELL| Reached  82% of maximal function calls                     8.7301486697
 POWELL| Reached  83% of maximal function calls                     8.7301463834
 POWELL| Reached  84% of maximal function calls                     8.7301434865
 POWELL| Reached  84% of maximal function calls                     8.7301424331
 POWELL| Reached  85% of maximal function calls                     8.7301389150
 POWELL| Reached  86% of maximal function calls                     8.7301366458
 POWELL| Reached  87% of maximal function calls                     8.7301329623
 POWELL| Reached  88% of maximal function calls                     8.7301316509
 POWELL| Reached  88% of maximal function calls                     8.7301298092
 POWELL| Reached  89% of maximal function calls                     8.7301171967
 POWELL| Reached  90% of maximal function calls                     8.7300667522
 POWELL| Reached  91% of maximal function calls                     8.7300658543
 POWELL| Reached  92% of maximal function calls                     8.7300502584
 POWELL| Reached  92% of maximal function calls                     8.7300444295
 POWELL| Reached  93% of maximal function calls                     8.7300415143
 POWELL| Reached  94% of maximal function calls                     8.7300405196
 POWELL| Reached  95% of maximal function calls                     8.7300397417
 POWELL| Reached  96% of maximal function calls                     8.7300388524
 POWELL| Reached  96% of maximal function calls                     8.7300365460
 POWELL| Reached  97% of maximal function calls                     8.7300336905
 POWELL| Reached  98% of maximal function calls                     8.7300318074
 POWELL| Reached  99% of maximal function calls                     8.7300318074
 POWELL| Reached 100% of maximal function calls                     8.7300300179
 POWELL| Reached 100% of maximal function calls                     8.7300290046
 POWELL| Exceeding maximum number of steps
 POWELL| Reached 100% of maximal function calls                     8.7300290046
 POWELL| RMS average of variables                                   0.0000515946
 POWELL| Start optimization   4 of total  50               rhobeg =   0.00018824
 POWELL| Inital value of function                                   8.7300290046
 POWELL| Reached   1% of maximal function calls                     8.7300290046
 POWELL| Reached   2% of maximal function calls                     8.7300290046
 POWELL| Reached   3% of maximal function calls                     8.7300290046
 POWELL| Reached   4% of maximal function calls                     8.6976187318
 POWELL| Reached   4% of maximal function calls                     8.6976187318
 POWELL| Reached   5% of maximal function calls                     8.6976187318
 POWELL| Reached   6% of maximal function calls                     8.6976187318
 POWELL| Reached   7% of maximal function calls                     8.6976187318
 POWELL| Reached   8% of maximal function calls                     8.6976187318
 POWELL| Reached   8% of maximal function calls                     8.6976187318
 POWELL| Reached   9% of maximal function calls                     8.6976187318
 POWELL| Reached  10% of maximal function calls                     8.6976187318
 POWELL| Reached  11% of maximal function calls                     8.6976187318
 POWELL| Reached  12% of maximal function calls                     8.6976187318
 POWELL| Reached  12% of maximal function calls                     8.6949887188
 POWELL| Reached  13% of maximal function calls                     8.6921095876
 POWELL| Reached  14% of maximal function calls                     8.6921095876
 POWELL| Reached  15% of maximal function calls                     8.6908118984
 POWELL| Reached  16% of maximal function calls                     8.6905017732
 POWELL| Reached  16% of maximal function calls                     8.6903826639
 POWELL| Reached  17% of maximal function calls                     8.6903826639
 POWELL| Reached  18% of maximal function calls                     8.6903825568
 POWELL| Reached  19% of maximal function calls                     8.6903801688
 POWELL| Reached  20% of maximal function calls                     8.6903801688
 POWELL| Reached  20% of maximal function calls                     8.6903794739
 POWELL| Reached  21% of maximal function calls                     8.6903726098
 POWELL| Reached  22% of maximal function calls                     8.6903635972
 POWELL| Reached  23% of maximal function calls                     8.6903635972
 POWELL| Reached  24% of maximal function calls                     8.6903468601
 POWELL| Reached  24% of maximal function calls                     8.6902472047
 POWELL| Reached  25% of maximal function calls                     8.6898656023
 POWELL| Reached  26% of maximal function calls                     8.6898656023
 POWELL| Reached  27% of maximal function calls                     8.6897486523
 POWELL| Reached  28% of maximal function calls                     8.6897105707
 POWELL| Reached  28% of maximal function calls                     8.6896908378
 POWELL| Reached  29% of maximal function calls                     8.6896806705
 POWELL| Reached  30% of maximal function calls                     8.6896792815
 POWELL| Reached  31% of maximal function calls                     8.6896746495
 POWELL| Reached  32% of maximal function calls                     8.6896619457
 POWELL| Reached  32% of maximal function calls                     8.6896525093
 POWELL| Reached  33% of maximal function calls                     8.6896455272
 POWELL| Reached  34% of maximal function calls                     8.6896360255
 POWELL| Reached  35% of maximal function calls                     8.6896261853
 POWELL| Reached  36% of maximal function calls                     8.6896169831
 POWELL| Reached  36% of maximal function calls                     8.6896027759
 POWELL| Reached  37% of maximal function calls                     8.6895949074
 POWELL| Reached  38% of maximal function calls                     8.6895829178
 POWELL| Reached  39% of maximal function calls                     8.6895729458
 POWELL| Reached  40% of maximal function calls                     8.6895692447
 POWELL| Reached  40% of maximal function calls                     8.6895633729
 POWELL| Reached  41% of maximal function calls                     8.6895551108
 POWELL| Reached  42% of maximal function calls                     8.6895509286
 POWELL| Reached  43% of maximal function calls                     8.6895412271
 POWELL| Reached  44% of maximal function calls                     8.6895341559
 POWELL| Reached  44% of maximal function calls                     8.6895176394
 POWELL| Reached  45% of maximal function calls                     8.6895007537
 POWELL| Reached  46% of maximal function calls                     8.6894898966
 POWELL| Reached  47% of maximal function calls                     8.6894764880
 POWELL| Reached  48% of maximal function calls                     8.6894629064
 POWELL| Reached  48% of maximal function calls                     8.6894472049
 POWELL| Reached  49% of maximal function calls                     8.6894341441
 POWELL| Reached  50% of maximal function calls                     8.6894140675
 POWELL| Reached  51% of maximal function calls                     8.6893725611
 POWELL| Reached  52% of maximal function calls                     8.6893444103
 POWELL| Reached  52% of maximal function calls                     8.6893406568
 POWELL| Reached  53% of maximal function calls                     8.6893378017
 POWELL| Reached  54% of maximal function calls                     8.6893354568
 POWELL| Reached  55% of maximal function calls                     8.6893354568
 POWELL| Reached  56% of maximal function calls                     8.6893354568
 POWELL| Reached  56% of maximal function calls                     8.6893317651
 POWELL| Reached  57% of maximal function calls                     8.6893219674
 POWELL| Reached  58% of maximal function calls                     8.6893115825
 POWELL| Reached  59% of maximal function calls                     8.6893115825
 POWELL| Reached  60% of maximal function calls                     8.6893074420
 POWELL| Reached  60% of maximal function calls                     8.6892993958
 POWELL| Reached  61% of maximal function calls                     8.6892909266
 POWELL| Reached  62% of maximal function calls                     8.6892812823
 POWELL| Reached  63% of maximal function calls                     8.6892774006
 POWELL| Reached  64% of maximal function calls                     8.6892719587
 POWELL| Reached  64% of maximal function calls                     8.6892607367
 POWELL| Reached  65% of maximal function calls                     8.6892542902
 POWELL| Reached  66% of maximal function calls                     8.6892532629
 POWELL| Reached  67% of maximal function calls                     8.6892528620
 POWELL| Reached  68% of maximal function calls                     8.6892411646
 POWELL| Reached  68% of maximal function calls                     8.6892401200
 POWELL| Reached  69% of maximal function calls                     8.6892302768
 POWELL| Reached  70% of maximal function calls                     8.6892237244
 POWELL| Reached  71% of maximal function calls                     8.6892159000
 POWELL| Reached  72% of maximal function calls                     8.6892121212
 POWELL| Reached  72% of maximal function calls                     8.6892018624
 POWELL| Reached  73% of maximal function calls                     8.6891961631
 POWELL| Reached  74% of maximal function calls                     8.6891915032
 POWELL| Reached  75% of maximal function calls                     8.6891895843
 POWELL| Reached  76% of maximal function calls                     8.6891872693
 POWELL| Reached  76% of maximal function calls                     8.6891847522
 POWELL| Reached  77% of maximal function calls                     8.6891808998
 POWELL| Reached  78% of maximal function calls                     8.6891756962
 POWELL| Reached  79% of maximal function calls                     8.6891707400
 POWELL| Reached  80% of maximal function calls                     8.6891639983
 POWELL| Reached  80% of maximal function calls                     8.6891600539
 POWELL| Reached  81% of maximal function calls                     8.6891528617
 POWELL| Reached  82% of maximal function calls                     8.6891475841
 POWELL| Reached  83% of maximal function calls                     8.6891354084
 POWELL| Reached  84% of maximal function calls                     8.6891285819
 POWELL| Reached  84% of maximal function calls                     8.6891226949
 POWELL| Reached  85% of maximal function calls                     8.6891222696
 POWELL| Reached  86% of maximal function calls                     8.6891141892
 POWELL| Reached  87% of maximal function calls                     8.6891117399
 POWELL| Reached  88% of maximal function calls                     8.6891033528
 POWELL| Reached  88% of maximal function calls                     8.6891023297
 POWELL| Reached  89% of maximal function calls                     8.6890922187
 POWELL| Reached  90% of maximal function calls                     8.6890894934
 POWELL| Reached  91% of maximal function calls                     8.6890828307
 POWELL| Reached  92% of maximal function calls                     8.6890431859
 POWELL| Reached  92% of maximal function calls                     8.6890413526
 POWELL| Reached  93% of maximal function calls                     8.6890356160
 POWELL| Reached  94% of maximal function calls                     8.6890327901
 POWELL| Reached  95% of maximal function calls                     8.6890282501
 POWELL| Reached  96% of maximal function calls                     8.6890268508
 POWELL| Reached  96% of maximal function calls                     8.6890231388
 POWELL| Reached  97% of maximal function calls                     8.6890153307
 POWELL| Reached  98% of maximal function calls                     8.6890112244
 POWELL| Reached  99% of maximal function calls                     8.6890054662
 POWELL| Reached 100% of maximal function calls                     8.6889970467
 POWELL| Reached 100% of maximal function calls                     8.6889970467
 POWELL| Exceeding maximum number of steps
 POWELL| Reached 100% of maximal function calls                     8.6889970467
 POWELL| RMS average of variables                                   0.0000553765
 POWELL| Start optimization   5 of total  50               rhobeg =   0.00018447
 POWELL| Inital value of function                                   8.6889970467
 POWELL| Reached   1% of maximal function calls                     8.6889970467
 POWELL| Reached   2% of maximal function calls                     8.6889970467
 POWELL| Reached   3% of maximal function calls                     8.6889970467
 POWELL| Reached   4% of maximal function calls                     8.6887325342
 POWELL| Reached   4% of maximal function calls                     8.6887325342
 POWELL| Reached   5% of maximal function calls                     8.6887325342
 POWELL| Reached   6% of maximal function calls                     8.6887325342
 POWELL| Reached   7% of maximal function calls                     8.6887325342
 POWELL| Reached   8% of maximal function calls                     8.6887325342
 POWELL| Reached   8% of maximal function calls                     8.6887325342
 POWELL| Reached   9% of maximal function calls                     8.6887325342
 POWELL| Reached  10% of maximal function calls                     8.6887325342
 POWELL| Reached  11% of maximal function calls                     8.6887325342
 POWELL| Reached  12% of maximal function calls                     8.6887325342
 POWELL| Reached  12% of maximal function calls                     8.6887325342
 POWELL| Reached  13% of maximal function calls                     8.6883566258
 POWELL| Reached  14% of maximal function calls                     8.6848059038
 POWELL| Reached  15% of maximal function calls                     8.6843546668
 POWELL| Reached  16% of maximal function calls                     8.6841139263
 POWELL| Reached  16% of maximal function calls                     8.6841100289
 POWELL| Reached  17% of maximal function calls                     8.6841100289
 POWELL| Reached  18% of maximal function calls                     8.6841100289
 POWELL| Reached  19% of maximal function calls                     8.6841034115
 POWELL| Reached  20% of maximal function calls                     8.6841010955
 POWELL| Reached  20% of maximal function calls                     8.6841000543
 POWELL| Reached  21% of maximal function calls                     8.6840987644
 POWELL| Reached  22% of maximal function calls                     8.6840978985
 POWELL| Reached  23% of maximal function calls                     8.6840976053
 POWELL| Reached  24% of maximal function calls                     8.6840937118
 POWELL| Reached  24% of maximal function calls                     8.6840726345
 POWELL| Reached  25% of maximal function calls                     8.6839901490
 POWELL| Reached  26% of maximal function calls                     8.6836920518
 POWELL| Reached  27% of maximal function calls                     8.6836691485
 POWELL| Reached  28% of maximal function calls                     8.6836050082
 POWELL| Reached  28% of maximal function calls                     8.6835747662
 POWELL| Reached  29% of maximal function calls                     8.6835593099
 POWELL| Reached  30% of maximal function calls                     8.6835582118
 POWELL| Reached  31% of maximal function calls                     8.6835549639
 POWELL| Reached  32% of maximal function calls                     8.6835547074
 POWELL| Reached  32% of maximal function calls                     8.6835526156
 POWELL| Reached  33% of maximal function calls                     8.6835526156
 POWELL| Reached  34% of maximal function calls                     8.6835494167
 POWELL| Reached  35% of maximal function calls                     8.6835463796
 POWELL| Reached  36% of maximal function calls                     8.6835445109
 POWELL| Reached  36% of maximal function calls                     8.6835440089
 POWELL| Reached  37% of maximal function calls                     8.6835391385
 POWELL| Reached  38% of maximal function calls                     8.6835372730
 POWELL| Reached  39% of maximal function calls                     8.6835350206
 POWELL| Reached  40% of maximal function calls                     8.6835297250
 POWELL| Reached  40% of maximal function calls                     8.6835126997
 POWELL| Reached  41% of maximal function calls                     8.6834453378
 POWELL| Reached  42% of maximal function calls                     8.6822634329
 POWELL| Reached  43% of maximal function calls                     8.6822113332
 POWELL| Reached  44% of maximal function calls                     8.6822113332
 POWELL| Reached  44% of maximal function calls                     8.6822093100
 POWELL| Reached  45% of maximal function calls                     8.6822093100
 POWELL| Reached  46% of maximal function calls                     8.6822093100
 POWELL| Reached  47% of maximal function calls                     8.6822093100
 POWELL| Reached  48% of maximal function calls                     8.6822076400
 POWELL| Reached  48% of maximal function calls                     8.6822055266
 POWELL| Reached  49% of maximal function calls                     8.6822055266
 POWELL| Reached  50% of maximal function calls                     8.6822055266
 POWELL| Reached  51% of maximal function calls                     8.6822055266
 POWELL| Reached  52% of maximal function calls                     8.6822038520
 POWELL| Reached  52% of maximal function calls                     8.6822024835
 POWELL| Reached  53% of maximal function calls                     8.6821956946
 POWELL| Reached  54% of maximal function calls                     8.6821891094
 POWELL| Reached  55% of maximal function calls                     8.6821858126
 POWELL| Reached  56% of maximal function calls                     8.6821811768
 POWELL| Reached  56% of maximal function calls                     8.6821739435
 POWELL| Reached  57% of maximal function calls                     8.6821739435
 POWELL| Reached  58% of maximal function calls                     8.6821688163
 POWELL| Reached  59% of maximal function calls                     8.6821635557
 POWELL| Reached  60% of maximal function calls                     8.6821592676
 POWELL| Reached  60% of maximal function calls                     8.6821534437
 POWELL| Reached  61% of maximal function calls                     8.6821514845
 POWELL| Reached  62% of maximal function calls                     8.6821492607
 POWELL| Reached  63% of maximal function calls                     8.6821447172
 POWELL| Reached  64% of maximal function calls                     8.6821394691
 POWELL| Reached  64% of maximal function calls                     8.6821314631
 POWELL| Reached  65% of maximal function calls                     8.6821176138
 POWELL| Reached  66% of maximal function calls                     8.6821016797
 POWELL| Reached  67% of maximal function calls                     8.6820843339
 POWELL| Reached  68% of maximal function calls                     8.6820634603
 POWELL| Reached  68% of maximal function calls                     8.6820601777
 POWELL| Reached  69% of maximal function calls                     8.6820601777
 POWELL| Reached  70% of maximal function calls                     8.6820583541
 POWELL| Reached  71% of maximal function calls                     8.6820567778
 POWELL| Reached  72% of maximal function calls                     8.6820536069
 POWELL| Reached  72% of maximal function calls                     8.6820504084
 POWELL| Reached  73% of maximal function calls                     8.6820468275
 POWELL| Reached  74% of maximal function calls                     8.6820417484
 POWELL| Reached  75% of maximal function calls                     8.6820355437
 POWELL| Reached  76% of maximal function calls                     8.6820296366
 POWELL| Reached  76% of maximal function calls                     8.6820138330
 POWELL| Reached  77% of maximal function calls                     8.6820018476
 POWELL| Reached  78% of maximal function calls                     8.6820002818
 POWELL| Reached  79% of maximal function calls                     8.6820002818
 POWELL| Reached  80% of maximal function calls                     8.6819966507
 POWELL| Reached  80% of maximal function calls                     8.6819922486
 POWELL| Reached  81% of maximal function calls                     8.6819915661
 POWELL| Reached  82% of maximal function calls                     8.6819885995
 POWELL| Reached  83% of maximal function calls                     8.6819874617
 POWELL| Reached  84% of maximal function calls                     8.6819816279
 POWELL| Reached  84% of maximal function calls                     8.6819789993
 POWELL| Reached  85% of maximal function calls                     8.6819747500
 POWELL| Reached  86% of maximal function calls                     8.6819690608
 POWELL| Reached  87% of maximal function calls                     8.6819665390
 POWELL| Reached  88% of maximal function calls                     8.6819603067
 POWELL| Reached  88% of maximal function calls                     8.6819573518
 POWELL| Reached  89% of maximal function calls                     8.6819528179
 POWELL| Reached  90% of maximal function calls                     8.6819519898
 POWELL| Reached  91% of maximal function calls                     8.6819508498
 POWELL| Reached  92% of maximal function calls                     8.6819467541
 POWELL| Reached  92% of maximal function calls                     8.6819434692
 POWELL| Reached  93% of maximal function calls                     8.6819401153
 POWELL| Reached  94% of maximal function calls                     8.6819356276
 POWELL| Reached  95% of maximal function calls                     8.6819307739
 POWELL| Reached  96% of maximal function calls                     8.6819284470
 POWELL| Reached  96% of maximal function calls                     8.6819229537
 POWELL| Reached  97% of maximal function calls                     8.6819209438
 POWELL| Reached  98% of maximal function calls                     8.6819209438
 POWELL| Reached  99% of maximal function calls                     8.6819175027
 POWELL| Reached 100% of maximal function calls                     8.6819145994
 POWELL| Reached 100% of maximal function calls                     8.6819108627
 POWELL| Exceeding maximum number of steps
 POWELL| Reached 100% of maximal function calls                     8.6819108627
 POWELL| RMS average of variables                                   0.0000497303
 POWELL| Start optimization   6 of total  50               rhobeg =   0.00018078
 POWELL| Inital value of function                                   8.6819108627
 POWELL| Reached   1% of maximal function calls                     8.6819108627
 POWELL| Reached   2% of maximal function calls                     8.6819108627
 POWELL| Reached   3% of maximal function calls                     8.6819108627
 POWELL| Reached   4% of maximal function calls                     8.6819108627
 POWELL| Reached   4% of maximal function calls                     8.6819108627
 POWELL| Reached   5% of maximal function calls                     8.6819108627
 POWELL| Reached   6% of maximal function calls                     8.6819108627
 POWELL| Reached   7% of maximal function calls                     8.6819108627
 POWELL| Reached   8% of maximal function calls                     8.6819108627
 POWELL| Reached   8% of maximal function calls                     8.6819108627
 POWELL| Reached   9% of maximal function calls                     8.6819108627
 POWELL| Reached  10% of maximal function calls                     8.6819108627
 POWELL| Reached  11% of maximal function calls                     8.6819108627
 POWELL| Reached  12% of maximal function calls                     8.6819108627
 POWELL| Reached  12% of maximal function calls                     8.6819108627
 POWELL| Reached  13% of maximal function calls                     8.6812432931
 POWELL| Reached  14% of maximal function calls                     8.6770811376
 POWELL| Reached  15% of maximal function calls                     8.6766222703
 POWELL| Reached  16% of maximal function calls                     8.6765365605
 POWELL| Reached  16% of maximal function calls                     8.6765365605
 POWELL| Reached  17% of maximal function calls                     8.6765365605
 POWELL| Reached  18% of maximal function calls                     8.6765327602
 POWELL| Reached  19% of maximal function calls                     8.6765282463
 POWELL| Reached  20% of maximal function calls                     8.6765273236
 POWELL| Reached  20% of maximal function calls                     8.6765271388
 POWELL| Reached  21% of maximal function calls                     8.6765147136
 POWELL| Reached  22% of maximal function calls                     8.6765087868
 POWELL| Reached  23% of maximal function calls                     8.6764921706
 POWELL| Reached  24% of maximal function calls                     8.6764869994
 POWELL| Reached  24% of maximal function calls                     8.6764869994
 POWELL| Reached  25% of maximal function calls                     8.6764869994
 POWELL| Reached  26% of maximal function calls                     8.6764576606
 POWELL| Reached  27% of maximal function calls                     8.6764373852
 POWELL| Reached  28% of maximal function calls                     8.6764284357
 POWELL| Reached  28% of maximal function calls                     8.6763881474
 POWELL| Reached  29% of maximal function calls                     8.6763881474
 POWELL| Reached  30% of maximal function calls                     8.6763881474
 POWELL| Reached  31% of maximal function calls                     8.6763881474
 POWELL| Reached  32% of maximal function calls                     8.6763881474
 POWELL| Reached  32% of maximal function calls                     8.6763881474
 POWELL| Reached  33% of maximal function calls                     8.6763811370
 POWELL| Reached  34% of maximal function calls                     8.6763793908
 POWELL| Reached  35% of maximal function calls                     8.6763793908
 POWELL| Reached  36% of maximal function calls                     8.6763793908
 POWELL| Reached  36% of maximal function calls                     8.6763793908
 POWELL| Reached  37% of maximal function calls                     8.6763793908
 POWELL| Reached  38% of maximal function calls                     8.6763793908
 POWELL| Reached  39% of maximal function calls                     8.6763793908
 POWELL| Reached  40% of maximal function calls                     8.6763793908
 POWELL| Reached  40% of maximal function calls                     8.6763778200
 POWELL| Reached  41% of maximal function calls                     8.6763776624
 POWELL| Reached  42% of maximal function calls                     8.6763771324
 POWELL| Reached  43% of maximal function calls                     8.6763771324
 POWELL| Reached  44% of maximal function calls                     8.6763771324
 POWELL| Reached  44% of maximal function calls                     8.6763736614
 POWELL| Reached  45% of maximal function calls                     8.6763719105
 POWELL| Reached  46% of maximal function calls                     8.6763716634
 POWELL| Reached  47% of maximal function calls                     8.6763707974
 POWELL| Reached  48% of maximal function calls                     8.6763694781
 POWELL| Reached  48% of maximal function calls                     8.6763689482
 POWELL| Reached  49% of maximal function calls                     8.6763689244
 POWELL| Reached  50% of maximal function calls                     8.6763658597
 POWELL| Reached  51% of maximal function calls                     8.6763645587
 POWELL| Reached  52% of maximal function calls                     8.6763637581
 POWELL| Reached  52% of maximal function calls                     8.6763616352
 POWELL| Reached  53% of maximal function calls                     8.6763611477
 POWELL| Reached  54% of maximal function calls                     8.6763609888
 POWELL| Reached  55% of maximal function calls                     8.6763609888
 POWELL| Reached  56% of maximal function calls                     8.6763609888
 POWELL| Reached  56% of maximal function calls                     8.6763586554
 POWELL| Reached  57% of maximal function calls                     8.6763565612
 POWELL| Reached  58% of maximal function calls                     8.6763552787
 POWELL| Reached  59% of maximal function calls                     8.6763537618
 POWELL| Reached  60% of maximal function calls                     8.6763522734
 POWELL| Reached  60% of maximal function calls                     8.6763520151
 POWELL| Reached  61% of maximal function calls                     8.6763504888
 POWELL| Reached  62% of maximal function calls                     8.6763462410
 POWELL| Reached  63% of maximal function calls                     8.6763450333
 POWELL| Reached  64% of maximal function calls                     8.6763421004
 POWELL| Reached  64% of maximal function calls                     8.6763391526
 POWELL| Reached  65% of maximal function calls                     8.6763364577
 POWELL| Reached  66% of maximal function calls                     8.6763352665
 POWELL| Reached  67% of maximal function calls                     8.6763324980
 POWELL| Reached  68% of maximal function calls                     8.6763296528
 POWELL| Reached  68% of maximal function calls                     8.6763274679
 POWELL| Reached  69% of maximal function calls                     8.6763255299
 POWELL| Reached  70% of maximal function calls                     8.6763223754
 POWELL| Reached  71% of maximal function calls                     8.6763215243
 POWELL| Reached  72% of maximal function calls                     8.6763196984
 POWELL| Reached  72% of maximal function calls                     8.6763180915
 POWELL| Reached  73% of maximal function calls                     8.6763164482
 POWELL| Reached  74% of maximal function calls                     8.6763132221
 POWELL| Reached  75% of maximal function calls                     8.6763113389
 POWELL| Reached  76% of maximal function calls                     8.6763104072
 POWELL| Reached  76% of maximal function calls                     8.6763069540
 POWELL| Reached  77% of maximal function calls                     8.6763061818
 POWELL| Reached  78% of maximal function calls                     8.6763061818
 POWELL| Reached  79% of maximal function calls                     8.6763038796
 POWELL| Reached  80% of maximal function calls                     8.6763034849
 POWELL| Reached  80% of maximal function calls                     8.6763003979
 POWELL| Reached  81% of maximal function calls                     8.6762979061
 POWELL| Reached  82% of maximal function calls                     8.6762978909
 POWELL| Reached  83% of maximal function calls                     8.6762956998
 POWELL| Reached  84% of maximal function calls                     8.6762925927
 POWELL| Reached  84% of maximal function calls                     8.6762918352
 POWELL| Reached  85% of maximal function calls                     8.6762903545
 POWELL| Reached  86% of maximal function calls                     8.6762885057
 POWELL| Reached  87% of maximal function calls                     8.6762869984
 POWELL| Reached  88% of maximal function calls                     8.6762843084
 POWELL| Reached  88% of maximal function calls                     8.6762809917
 POWELL| Reached  89% of maximal function calls                     8.6762770347
 POWELL| Reached  90% of maximal function calls                     8.6762763110
 POWELL| Reached  91% of maximal function calls                     8.6762731772
 POWELL| Reached  92% of maximal function calls                     8.6762707834
 POWELL| Reached  92% of maximal function calls                     8.6762707834
 POWELL| Reached  93% of maximal function calls                     8.6762689223
 POWELL| Reached  94% of maximal function calls                     8.6762680657
 POWELL| Reached  95% of maximal function calls                     8.6762671546
 POWELL| Reached  96% of maximal function calls                     8.6762653322
 POWELL| Reached  96% of maximal function calls                     8.6762631419
 POWELL| Reached  97% of maximal function calls                     8.6762622919
 POWELL| Reached  98% of maximal function calls                     8.6762591120
 POWELL| Reached  99% of maximal function calls                     8.6762567072
 POWELL| Reached 100% of maximal function calls                     8.6762529462
 POWELL| Reached 100% of maximal function calls                     8.6762529462
 POWELL| Exceeding maximum number of steps
 POWELL| Reached 100% of maximal function calls                     8.6762529462
 POWELL| RMS average of variables                                   0.0000007462
 POWELL| Start optimization   7 of total  50               rhobeg =   0.00017717
 POWELL| Inital value of function                                   8.6762529462
 POWELL| Reached   1% of maximal function calls                     8.6762529462
 POWELL| Reached   2% of maximal function calls                     8.6762529462
 POWELL| Reached   3% of maximal function calls                     8.6762529462
 POWELL| Reached   4% of maximal function calls                     8.6762529462
 POWELL| Reached   4% of maximal function calls                     8.6762529462
 POWELL| Reached   5% of maximal function calls                     8.6762529462
 POWELL| Reached   6% of maximal function calls                     8.6762529462
 POWELL| Reached   7% of maximal function calls                     8.6762529462
 POWELL| Reached   8% of maximal function calls                     8.6762529462
 POWELL| Reached   8% of maximal function calls                     8.6762529462
 POWELL| Reached   9% of maximal function calls                     8.6762529462
 POWELL| Reached  10% of maximal function calls                     8.6762529462
 POWELL| Reached  11% of maximal function calls                     8.6762529462
 POWELL| Reached  12% of maximal function calls                     8.6762529462
 POWELL| Reached  12% of maximal function calls                     8.6762529462
 POWELL| Reached  13% of maximal function calls                     8.6762529462
 POWELL| Reached  14% of maximal function calls                     8.6697329544
 POWELL| Reached  15% of maximal function calls                     8.6695718792
 POWELL| Reached  16% of maximal function calls                     8.6695718792
 POWELL| Reached  16% of maximal function calls                     8.6695718792
 POWELL| Reached  17% of maximal function calls                     8.6695718792
 POWELL| Reached  18% of maximal function calls                     8.6695688889
 POWELL| Reached  19% of maximal function calls                     8.6695651809
 POWELL| Reached  20% of maximal function calls                     8.6695589593
 POWELL| Reached  20% of maximal function calls                     8.6695589593
 POWELL| Reached  21% of maximal function calls                     8.6695589593
 POWELL| Reached  22% of maximal function calls                     8.6694754620
 POWELL| Reached  23% of maximal function calls                     8.6694679772
 POWELL| Reached  24% of maximal function calls                     8.6694679772
 POWELL| Reached  24% of maximal function calls                     8.6694642046
 POWELL| Reached  25% of maximal function calls                     8.6694543746
 POWELL| Reached  26% of maximal function calls                     8.6694256074
 POWELL| Reached  27% of maximal function calls                     8.6694256074
 POWELL| Reached  28% of maximal function calls                     8.6694240995
 POWELL| Reached  28% of maximal function calls                     8.6694240995
 POWELL| Reached  29% of maximal function calls                     8.6694240995
 POWELL| Reached  30% of maximal function calls                     8.6694240995
 POWELL| Reached  31% of maximal function calls                     8.6694240995
 POWELL| Reached  32% of maximal function calls                     8.6694240995
 POWELL| Reached  32% of maximal function calls                     8.6694240995
 POWELL| Reached  33% of maximal function calls                     8.6694240995
 POWELL| Reached  34% of maximal function calls                     8.6694240995
 POWELL| Reached  35% of maximal function calls                     8.6694240995
 POWELL| Reached  36% of maximal function calls                     8.6694027035
 POWELL| Reached  36% of maximal function calls                     8.6694027035
 POWELL| Reached  37% of maximal function calls                     8.6693675134
 POWELL| Reached  38% of maximal function calls                     8.6693675134
[...]
 POWELL| Reached  78% of maximal function calls                     8.1704414999
 POWELL| Reached  79% of maximal function calls                     8.1704394521
 POWELL| Reached  80% of maximal function calls                     8.1704373054
 POWELL| Reached  80% of maximal function calls                     8.1704334901
 POWELL| Reached  81% of maximal function calls                     8.1704326397
 POWELL| Reached  82% of maximal function calls                     8.1704273215
 POWELL| Reached  83% of maximal function calls                     8.1704250151
 POWELL| Reached  84% of maximal function calls                     8.1704189118
 POWELL| Reached  84% of maximal function calls                     8.1704179511
 POWELL| Reached  85% of maximal function calls                     8.1704167810
 POWELL| Reached  86% of maximal function calls                     8.1704149344
 POWELL| Reached  87% of maximal function calls                     8.1704134442
 POWELL| Reached  88% of maximal function calls                     8.1704117496
 POWELL| Reached  88% of maximal function calls                     8.1704107978
 POWELL| Reached  89% of maximal function calls                     8.1704086183
 POWELL| Reached  90% of maximal function calls                     8.1704050187
 POWELL| Reached  91% of maximal function calls                     8.1704017441
 POWELL| Reached  92% of maximal function calls                     8.1703984216
 POWELL| Reached  92% of maximal function calls                     8.1703947207
 POWELL| Reached  93% of maximal function calls                     8.1703920030
 POWELL| Reached  94% of maximal function calls                     8.1703889883
 POWELL| Reached  95% of maximal function calls                     8.1703868373
 POWELL| Reached  96% of maximal function calls                     8.1703840623
 POWELL| Reached  96% of maximal function calls                     8.1703815771
 POWELL| Reached  97% of maximal function calls                     8.1703798844
 POWELL| Reached  98% of maximal function calls                     8.1703775004
 POWELL| Reached  99% of maximal function calls                     8.1703755798
 POWELL| Reached 100% of maximal function calls                     8.1703721803
 POWELL| Reached 100% of maximal function calls                     8.1703714389
 POWELL| Exceeding maximum number of steps
 POWELL| Reached 100% of maximal function calls                     8.1703714389
 POWELL| RMS average of variables                                   0.0000024453
 POWELL| Start optimization  41 of total  50               rhobeg =   0.00008914
 POWELL| Inital value of function                                   8.1703714389
 POWELL| Reached   1% of maximal function calls                     8.1703714389
 POWELL| Reached   2% of maximal function calls                     8.1703714389
 POWELL| Reached   3% of maximal function calls                     8.1703714389
 POWELL| Reached   4% of maximal function calls                     8.1703714389
 POWELL| Reached   4% of maximal function calls                     8.1703714389
 POWELL| Reached   5% of maximal function calls                     8.1703714389
 POWELL| Reached   6% of maximal function calls                     8.1703714389
 POWELL| Reached   7% of maximal function calls                     8.1703714389
 POWELL| Reached   8% of maximal function calls                     8.1703714389
 POWELL| Reached   8% of maximal function calls                     8.1703714389
 POWELL| Reached   9% of maximal function calls                     8.1703714389
 POWELL| Reached  10% of maximal function calls                     8.1703714389
 POWELL| Reached  11% of maximal function calls                     8.1703714389
 POWELL| Reached  12% of maximal function calls                     8.1703714389
 POWELL| Reached  12% of maximal function calls                     8.1703714389
 POWELL| Reached  13% of maximal function calls                     8.1703714389
 POWELL| Reached  14% of maximal function calls                     8.1703714389
 POWELL| Reached  15% of maximal function calls                     8.1703642166
 POWELL| Reached  16% of maximal function calls                     8.1703568805
 POWELL| Reached  16% of maximal function calls                     8.1703566136
 POWELL| Reached  17% of maximal function calls                     8.1703566136
 POWELL| Reached  18% of maximal function calls                     8.1703508391
 POWELL| Reached  19% of maximal function calls                     8.1703508391
 POWELL| Reached  20% of maximal function calls                     8.1703500381
 POWELL| Reached  20% of maximal function calls                     8.1703497113
 POWELL| Reached  21% of maximal function calls                     8.1703497113
 POWELL| Reached  22% of maximal function calls                     8.1703490039
 POWELL| Reached  23% of maximal function calls                     8.1703473752
 POWELL| Reached  24% of maximal function calls                     8.1703473752
 POWELL| Reached  24% of maximal function calls                     8.1703473752
 POWELL| Reached  25% of maximal function calls                     8.1703471526
 POWELL| Reached  26% of maximal function calls                     8.1703225796
 POWELL| Reached  27% of maximal function calls                     8.1703225796
 POWELL| Reached  28% of maximal function calls                     8.1703180778
 POWELL| Reached  28% of maximal function calls                     8.1703156435
 POWELL| Reached  29% of maximal function calls                     8.1703016684
 POWELL| Reached  30% of maximal function calls                     8.1703016684
 POWELL| Reached  31% of maximal function calls                     8.1702905223
 POWELL| Reached  32% of maximal function calls                     8.1702693030
 POWELL| Reached  32% of maximal function calls                     8.1702663343
 POWELL| Reached  33% of maximal function calls                     8.1702616254
 POWELL| Reached  34% of maximal function calls                     8.1702616254
 POWELL| Reached  35% of maximal function calls                     8.1702447878
 POWELL| Reached  36% of maximal function calls                     8.1702447878
 POWELL| Reached  36% of maximal function calls                     8.1702447878
 POWELL| Reached  37% of maximal function calls                     8.1702151163
 POWELL| Reached  38% of maximal function calls                     8.1702052166
 POWELL| Reached  39% of maximal function calls                     8.1702042132
 POWELL| Reached  40% of maximal function calls                     8.1701938372
 POWELL| Reached  40% of maximal function calls                     8.1701868665
 POWELL| Reached  41% of maximal function calls                     8.1701862042
 POWELL| Reached  42% of maximal function calls                     8.1701862042
 POWELL| Reached  43% of maximal function calls                     8.1701650929
 POWELL| Reached  44% of maximal function calls                     8.1701629001
 POWELL| Reached  44% of maximal function calls                     8.1701534268
 POWELL| Reached  45% of maximal function calls                     8.1701381238
 POWELL| Reached  46% of maximal function calls                     8.1701381238
 POWELL| Reached  47% of maximal function calls                     8.1701350819
 POWELL| Reached  48% of maximal function calls                     8.1701102252
 POWELL| Reached  48% of maximal function calls                     8.1700738492
 POWELL| Reached  49% of maximal function calls                     8.1700632046
 POWELL| Reached  50% of maximal function calls                     8.1700414618
 POWELL| Reached  51% of maximal function calls                     8.1700232287
 POWELL| Reached  52% of maximal function calls                     8.1700146289
 POWELL| Reached  52% of maximal function calls                     8.1700146289
 POWELL| Reached  53% of maximal function calls                     8.1699981341
 POWELL| Reached  54% of maximal function calls                     8.1699804683
 POWELL| Reached  55% of maximal function calls                     8.1699518968
 POWELL| Reached  56% of maximal function calls                     8.1699518968
 POWELL| Reached  56% of maximal function calls                     8.1699460697
 POWELL| Reached  57% of maximal function calls                     8.1699270569
 POWELL| Reached  58% of maximal function calls                     8.1699181658
 POWELL| Reached  59% of maximal function calls                     8.1698674249
 POWELL| Reached  60% of maximal function calls                     8.1698597430
 POWELL| Reached  60% of maximal function calls                     8.1698495959
 POWELL| Reached  61% of maximal function calls                     8.1698422584
 POWELL| Reached  62% of maximal function calls                     8.1698291723
 POWELL| Reached  63% of maximal function calls                     8.1698236999
 POWELL| Reached  64% of maximal function calls                     8.1698060266
 POWELL| Reached  64% of maximal function calls                     8.1697754691
 POWELL| Reached  65% of maximal function calls                     8.1697754691
 POWELL| Reached  66% of maximal function calls                     8.1697538081
 POWELL| Reached  67% of maximal function calls                     8.1697436771
 POWELL| Reached  68% of maximal function calls                     8.1697301968
 POWELL| Reached  68% of maximal function calls                     8.1697215595
 POWELL| Reached  69% of maximal function calls                     8.1697215595
 POWELL| Reached  70% of maximal function calls                     8.1696963408
 POWELL| Reached  71% of maximal function calls                     8.1696963408
 POWELL| Reached  72% of maximal function calls                     8.1696849959
 POWELL| Reached  72% of maximal function calls                     8.1696699154
 POWELL| Reached  73% of maximal function calls                     8.1696699154
 POWELL| Reached  74% of maximal function calls                     8.1696472861
 POWELL| Reached  75% of maximal function calls                     8.1696345784
 POWELL| Reached  76% of maximal function calls                     8.1696234521
 POWELL| Reached  76% of maximal function calls                     8.1696105215
 POWELL| Reached  77% of maximal function calls                     8.1696047029
 POWELL| Reached  78% of maximal function calls                     8.1696047029
 POWELL| Reached  79% of maximal function calls                     8.1696047029
 POWELL| Reached  80% of maximal function calls                     8.1695958684
 POWELL| Reached  80% of maximal function calls                     8.1695798652
 POWELL| Reached  81% of maximal function calls                     8.1695624598
 POWELL| Reached  82% of maximal function calls                     8.1695493895
 POWELL| Reached  83% of maximal function calls                     8.1695382526
 POWELL| Reached  84% of maximal function calls                     8.1695382526
 POWELL| Reached  84% of maximal function calls                     8.1695382526
 POWELL| Reached  85% of maximal function calls                     8.1695297833
 POWELL| Reached  86% of maximal function calls                     8.1695297833
 POWELL| Reached  87% of maximal function calls                     8.1695073309
 POWELL| Reached  88% of maximal function calls                     8.1694959531
 POWELL| Reached  88% of maximal function calls                     8.1694897409
 POWELL| Reached  89% of maximal function calls                     8.1694705982
 POWELL| Reached  90% of maximal function calls                     8.1694610241
 POWELL| Reached  91% of maximal function calls                     8.1694590485
 POWELL| Reached  92% of maximal function calls                     8.1694590485
 POWELL| Reached  92% of maximal function calls                     8.1694502068
 POWELL| Reached  93% of maximal function calls                     8.1694414144
 POWELL| Reached  94% of maximal function calls                     8.1694292847
 POWELL| Reached  95% of maximal function calls                     8.1694144657
 POWELL| Reached  96% of maximal function calls                     8.1694144657
 POWELL| Reached  96% of maximal function calls                     8.1694111631
 POWELL| Reached  97% of maximal function calls                     8.1694111631
 POWELL| Reached  98% of maximal function calls                     8.1693926876
 POWELL| Reached  99% of maximal function calls                     8.1693774820
 POWELL| Reached 100% of maximal function calls                     8.1693774820
 POWELL| Reached 100% of maximal function calls                     8.1693568526
 POWELL| Exceeding maximum number of steps
 POWELL| Reached 100% of maximal function calls                     8.1693568526
 POWELL| RMS average of variables                                   0.0000000858
 POWELL| Number of function evaluations                                      250
 POWELL| Final value of function                                    8.1693568526

 POWELL| Final errors of target values

 Reference configuration          1               Method number                1
    L    N    Occupation      Eigenvalue [eV]           dE [eV]          dCharge 
    0    1          2.00      -147.9429700353 SC   0.007996[ 1]    -0.000000[ X]
    0    2          2.00        -8.9087858475 VA  -0.001574[21]    -0.000649[ 0]
    0    3          0.00         0.2820086538 U1   0.000334[ X]     0.000059[ X]
    0    4          0.00         5.9169652077 U2   0.000554[ X]     0.000140[ 0]
    1    1          6.00       -98.7280887939 SC   0.004350[ 0]    -0.000002[ X]
    1    2          1.00        -2.5443010646 VA  -0.002762[77]    -0.000902[ 0]
    1    3          0.00         1.9043822924 U1   0.001814[ X]    -0.000465[ X]
    1    4          0.00         8.3735054519 U2   0.009626[ X]    -0.000595[ 0]
    2    1         10.00       -19.1071293340 VA  -0.000434[ 0]    -0.000662[ 0]
    2    2          0.00         1.7125565050 U1   0.005633[ 0]    -0.002292[ X]
    2    3          0.00         5.9280147808 U2   0.033463[ 0]    -0.004954[ 0]
    3    1          0.00         3.7176680104 U1  -0.000343[ X]     0.000000[ X]
    s-states N=    1                   Wavefunction at r=0:        -0.229338[ 0]
    s-states N=    2                   Wavefunction at r=0:        -0.491562[ 0]
    s-states N=    3                   Wavefunction at r=0:        -0.203535[ 0]
    s-states N=    4                   Wavefunction at r=0:        -0.308505[ 0]

 Number of target values reached:                                      11 of  21



                             NORMAL TERMINATION OF     
                                                       
                           ****  ******  ****   ****   
                          **  ** ****** **  ** ******  
                          ******   **   **  ** **  **  
                          **  **   **    ****  **  **  


 -------------------------------------------------------------------------------
 -                                                                             -
 -                                DBCSR STATISTICS                             -
 -                                                                             -
 -------------------------------------------------------------------------------
 COUNTER                                    TOTAL       BLAS       SMM       ACC
 flops inhomo. stacks                           0       0.0%      0.0%      0.0%
 flops total                         0.000000E+00       0.0%      0.0%      0.0%
 flops max/rank                      0.000000E+00       0.0%      0.0%      0.0%
 matmuls inhomo. stacks                         0       0.0%      0.0%      0.0%
 matmuls total                                  0       0.0%      0.0%      0.0%
 number of processed stacks                     0       0.0%      0.0%      0.0%
 average stack size                                     0.0       0.0       0.0
 marketing flops                     0.000000E+00
 -------------------------------------------------------------------------------

 MEMORY| Estimated peak process memory [MiB]                                  49

 -------------------------------------------------------------------------------
 -                                                                             -
 -                           R E F E R E N C E S                               -
 -                                                                             -
 -------------------------------------------------------------------------------
 
 CP2K version 7.0 (Development Version), the CP2K developers group (2018).
 CP2K is freely available from https://www.cp2k.org/ .

 Schuett, Ole; Messmer, Peter; Hutter, Juerg; VandeVondele, Joost. 
 Electronic Structure Calculations on Graphics Processing Units, John Wiley & Sons, Ltd, 173-190 (2016). 
 GPU-Accelerated Sparse Matrix-Matrix Multiplication for Linear Scaling Density Functional Theory.
 http://dx.doi.org/10.1002/9781118670712.ch8


 Borstnik, U; VandeVondele, J; Weber, V; Hutter, J. 
 PARALLEL COMPUTING, 40 (5-6), 47-58 (2014). 
 Sparse matrix multiplication: The distributed block-compressed sparse
 row library.
 http://dx.doi.org/10.1016/j.parco.2014.03.012


 Hutter, J; Iannuzzi, M; Schiffmann, F; VandeVondele, J. 
 WILEY INTERDISCIPLINARY REVIEWS-COMPUTATIONAL MOLECULAR SCIENCE, 4 (1), 15-25 (2014). 
 CP2K: atomistic simulations of condensed matter systems.
 http://dx.doi.org/10.1002/wcms.1159


 Frigo, M; Johnson, SG. 
 PROCEEDINGS OF THE IEEE, 93 (2), 216-231 (2005). 
 The design and implementation of FFTW3.
 http://dx.doi.org/10.1109/JPROC.2004.840301


 Perdew, JP; Burke, K; Ernzerhof, M. 
 PHYSICAL REVIEW LETTERS, 77 (18), 3865-3868 (1996). 
 Generalized gradient approximation made simple.
 http://dx.doi.org/10.1103/PhysRevLett.77.3865


 -------------------------------------------------------------------------------
 -                                                                             -
 -                                T I M I N G                                  -
 -                                                                             -
 -------------------------------------------------------------------------------
 SUBROUTINE                       CALLS  ASD         SELF TIME        TOTAL TIME
                                MAXIMUM       AVERAGE  MAXIMUM  AVERAGE  MAXIMUM
 CP2K                                 1  1.0    0.002    0.002 1063.262 1063.262
 atom_code                            1  2.0    0.000    0.000 1063.259 1063.259
 atom_pseudo_opt                      1  3.0   18.200   18.200 1063.259 1063.259
 calculate_atom                   10552  4.0    0.025    0.025 1031.421 1031.421
 calculate_atom_restricted        10552  5.0  355.156  355.156 1031.396 1031.396
 calculate_atom_vxc_lda          201864  6.0  636.183  636.183  676.239  676.239
 xc_functional_eval              201864  7.0    0.422    0.422   39.879   39.879
 pbe_lda_eval                    201864  8.0   39.457   39.457   39.457   39.457
 -------------------------------------------------------------------------------

 The number of warnings for this run is : 0
 
 -------------------------------------------------------------------------------
  **** **** ******  **  PROGRAM ENDED AT                 2018-06-24 22:09:37.215
 ***** ** ***  *** **   PROGRAM RAN ON                                    tcpc01
 **    ****   ******    PROGRAM RAN BY                                    hutter
 ***** **    ** ** **   PROGRAM PROCESS ID                                  3615
  **** **  *******  **  PROGRAM STOPPED IN /data/hutter/pseudo/UZH2018/PBE/Ga/q2
                                           1
