
  **** **** ******  **  PROGRAM STARTED AT               2018-06-24 21:37:56.894
 ***** ** ***  *** **   PROGRAM STARTED ON                                tcpc01
 **    ****   ******    PROGRAM STARTED BY                                hutter
 ***** **    ** ** **   PROGRAM PROCESS ID                                  3464
  **** **  *******  **  PROGRAM STARTED IN /data/hutter/pseudo/UZH2018/PBE/Ni/q1
                                           8

 CP2K| version string:                    CP2K version 7.0 (Development Version)
 CP2K| source code revision number:                                    svn:18485
 CP2K| cp2kflags: libint fftw3 libxc libderiv_max_am1=5 libint_max_am=6 spglib  
 CP2K| is freely available from                            https://www.cp2k.org/
 CP2K| Program compiled at                         Wed Jun 20 10:41:43 CEST 2018
 CP2K| Program compiled on                                                tcpc01
 CP2K| Program compiled for                                                local
 CP2K| Data directory path                        /data/hutter/CURRENT/cp2k/data
 CP2K| Input file name                                                    Ni.inp

 GLOBAL| Method name                                                        ATOM
 GLOBAL| Project name                                                    PROJECT
 GLOBAL| Preferred FFT library                                             FFTW3
 GLOBAL| Preferred diagonalization lib.                                       SL
 GLOBAL| Run type                                                   ENERGY_FORCE
 GLOBAL| All-to-all communication in single precision                          F
 GLOBAL| FFTs using library dependent lengths                                  F
 GLOBAL| Global print level                                               MEDIUM
 GLOBAL| Total number of message passing processes                             1
 GLOBAL| Number of threads for this process                                    1
 GLOBAL| This output is from process                                           0
 GLOBAL| CPU model name :  Intel(R) Xeon(R) CPU           X5570  @ 2.93GHz

 MEMORY| system memory details [Kb]
 MEMORY|                        rank 0           min           max       average
 MEMORY| MemTotal             37009584      37009584      37009584      37009584
 MEMORY| MemFree              32297660      32297660      32297660      32297660
 MEMORY| Buffers                300748        300748        300748        300748
 MEMORY| Cached                2032604       2032604       2032604       2032604
 MEMORY| Slab                   272548        272548        272548        272548
 MEMORY| SReclaimable           203732        203732        203732        203732
 MEMORY| MemLikelyFree        34834744      34834744      34834744      34834744


 *** Fundamental physical constants (SI units) ***

 *** Literature: B. J. Mohr and B. N. Taylor,
 ***             CODATA recommended values of the fundamental physical
 ***             constants: 2006, Web Version 5.1
 ***             http://physics.nist.gov/constants

 Speed of light in vacuum [m/s]                             2.99792458000000E+08
 Magnetic constant or permeability of vacuum [N/A**2]       1.25663706143592E-06
 Electric constant or permittivity of vacuum [F/m]          8.85418781762039E-12
 Planck constant (h) [J*s]                                  6.62606896000000E-34
 Planck constant (h-bar) [J*s]                              1.05457162825177E-34
 Elementary charge [C]                                      1.60217648700000E-19
 Electron mass [kg]                                         9.10938215000000E-31
 Electron g factor [ ]                                     -2.00231930436220E+00
 Proton mass [kg]                                           1.67262163700000E-27
 Fine-structure constant                                    7.29735253760000E-03
 Rydberg constant [1/m]                                     1.09737315685270E+07
 Avogadro constant [1/mol]                                  6.02214179000000E+23
 Boltzmann constant [J/K]                                   1.38065040000000E-23
 Atomic mass unit [kg]                                      1.66053878200000E-27
 Bohr radius [m]                                            5.29177208590000E-11

 *** Conversion factors ***

 [u] -> [a.u.]                                              1.82288848426455E+03
 [Angstrom] -> [Bohr] = [a.u.]                              1.88972613288564E+00
 [a.u.] = [Bohr] -> [Angstrom]                              5.29177208590000E-01
 [a.u.] -> [s]                                              2.41888432650478E-17
 [a.u.] -> [fs]                                             2.41888432650478E-02
 [a.u.] -> [J]                                              4.35974393937059E-18
 [a.u.] -> [N]                                              8.23872205491840E-08
 [a.u.] -> [K]                                              3.15774647902944E+05
 [a.u.] -> [kJ/mol]                                         2.62549961709828E+03
 [a.u.] -> [kcal/mol]                                       6.27509468713739E+02
 [a.u.] -> [Pa]                                             2.94210107994716E+13
 [a.u.] -> [bar]                                            2.94210107994716E+08
 [a.u.] -> [atm]                                            2.90362800883016E+08
 [a.u.] -> [eV]                                             2.72113838565563E+01
 [a.u.] -> [Hz]                                             6.57968392072181E+15
 [a.u.] -> [1/cm] (wave numbers)                            2.19474631370540E+05
 [a.u./Bohr**2] -> [1/cm]                                   5.14048714338585E+03
 
 DBCSR| Multiplication driver                                               BLAS
 DBCSR| Multrec recursion limit                                              512
 DBCSR| Multiplication stack size                                           1000
 DBCSR| Maximum elements for images                                    UNLIMITED
 DBCSR| Multiplicative factor virtual images                                   1
 DBCSR| Multiplication size stacks                                             3



                           ****  ******  ****   ****   
                          **  ** ****** **  ** ******  
                          ******   **   **  ** **  **  
                          **  **   **    ****  **  **  
                                                       
                             University of Zurich      
                                 2009 - 2015           
                                                       
                                 Version 0.0           
                                                                   


 Atomic Energy Calculation             Nickel [Ni]           Atomic number:   28


 *******************************************************************************
 ************************** Calculate Reference States *************************
 *******************************************************************************

 METHOD    | Restricted Kohn-Sham Calculation
 METHOD    | Relativistic Calculation using Douglas-Kroll 3rd order
 FUNCTIONAL| ROUTINE=NEW
 FUNCTIONAL| PBE:
 FUNCTIONAL| J.P.Perdew, K.Burke, M.Ernzerhof, Phys. Rev. Letter, vol. 77, n 18,
 FUNCTIONAL|  pp. 3865-3868, (1996){spin unpolarized}                           

 Electronic structure
    Total number of core electrons                                          0.00
    Total number of valence electrons                                      28.00
    Total number of electrons                                              28.00
    Multiplicity                                                   not specified
    S      2.00  2.00  2.00  2.00
    P      6.00  6.00
    D      8.00


 *******************************************************************************
                  Iteration          Convergence                     Energy [au]
 *******************************************************************************
                          1         20.3180                   -1442.837748625024
                          2         8.07560                   -1396.624076653288
                          3         9.85976                   -1491.993585280846
                          4         3.72538                   -1514.027463304693
                          5        0.464410                   -1520.104936349417
                          6        0.940784E-01               -1520.282259714712
                          7        0.116467                   -1520.282903618143
                          8        0.264084E-01               -1520.289200634095
                          9        0.257083E-03               -1520.289638402219
                         10        0.292533E-04               -1520.289638479690
                         11        0.965442E-06               -1520.289638480418
                         12        0.121111E-06               -1520.289638480426
                         13        0.655035E-07               -1520.289638480426

 Energy components [Hartree]           Total Energy ::        -1520.289638480426
                                        Band Energy ::         -888.128307414877
                                     Kinetic Energy ::         1593.115367192984
                                   Potential Energy ::        -3113.405005673410
                                      Virial (-V/T) ::            1.954287222249
                                        Core Energy ::        -2107.932705232018
                                          XC Energy ::          -63.449455784663
                                     Coulomb Energy ::          651.092522536255
                                        Confinement ::            0.000000088346

 Orbital energies  State     L     Occupation   Energy[a.u.]          Energy[eV]

                       1     0          2.000    -301.512551        -8204.573768
                       2     0          2.000     -36.052207         -981.030441
                       3     0          2.000      -4.078010         -110.968292
                       4     0          2.000      -0.207153           -5.636908
                       5     0          0.000       0.036024            0.980262
                       6     0          0.000       0.247884            6.745280

                       1     1          6.000     -31.015491         -843.974440
                       2     1          6.000      -2.621239          -71.327544
                       3     1          0.000      -0.043212           -1.175867
                       4     1          0.000       0.103867            2.826370

                       1     2          8.000      -0.326010           -8.871196
                       2     2          0.000       0.077225            2.101399
                       3     2          0.000       0.251184            6.835061

                       1     3          0.000       0.149663            4.072525


 Total Electron Density at R=0:                                     30754.365019

 *******************************************************************************
 ********************* Optimize Pseudopotential Parameters *********************
 *******************************************************************************

 POWELL| Start optimization procedure

 POWELL| Total number of parameters in optimization                           13

 POWELL| Initial errors of target values

 Reference configuration          1               Method number                1
    L    N    Occupation      Eigenvalue [eV]           dE [eV]          dCharge 
    0    1          2.00      -110.9826011973 SC  -0.014309[ 7]     0.000007[ X]
    0    2          2.00        -5.6341173160 VA   0.002791[86]     0.001489[ 0]
    0    3          0.00         0.9778028650 U1  -0.002459[ X]     0.000438[ X]
    0    4          0.00         6.7347999635 U2  -0.010480[ X]     0.000790[ 0]
    1    1          6.00       -71.3214037898 SC   0.006140[ 1]     0.000068[ X]
    1    2          0.00        -1.1737550513 U1   0.002112[ X]     0.000009[ X]
    1    3          0.00         2.8270299031 U2   0.000660[ X]    -0.000015[ 0]
    2    1          8.00        -8.8703803411 VA   0.000816[ 4]     0.000481[ 0]
    2    2          0.00         2.1036364712 U1   0.002238[ X]    -0.000171[ X]
    2    3          0.00         6.8449032367 U2   0.009842[ X]    -0.001447[ 0]
    3    1          0.00         4.0735183390 U1   0.000994[ X]    -0.000006[ X]

 Number of target values reached:                                      13 of  19

 POWELL| Start optimization   1 of total  50               rhobeg =   0.00010000
 POWELL| Inital value of function                                   8.3172214477
 POWELL| Reached   1% of maximal function calls                     8.3172214477
 POWELL| Reached   2% of maximal function calls                     8.3172214477
 POWELL| Reached   3% of maximal function calls                     8.3172214477
 POWELL| Reached   4% of maximal function calls                     8.3172214477
 POWELL| Reached   4% of maximal function calls                     8.3133395125
 POWELL| Reached   5% of maximal function calls                     8.3133395125
 POWELL| Reached   6% of maximal function calls                     8.3133395125
 POWELL| Reached   7% of maximal function calls                     8.3133395125
 POWELL| Reached   8% of maximal function calls                     8.3133395125
 POWELL| Reached   8% of maximal function calls                     8.3133395125
 POWELL| Reached   9% of maximal function calls                     8.3133395125
 POWELL| Reached  10% of maximal function calls                     8.3133395125
 POWELL| Reached  11% of maximal function calls                     8.3133395125
 POWELL| Reached  12% of maximal function calls                     8.3071233030
 POWELL| Reached  12% of maximal function calls                     8.3071020570
 POWELL| Reached  13% of maximal function calls                     8.3070652632
 POWELL| Reached  14% of maximal function calls                     8.3069940133
 POWELL| Reached  15% of maximal function calls                     8.3069364721
 POWELL| Reached  16% of maximal function calls                     8.3069364721
 POWELL| Reached  16% of maximal function calls                     8.3069364721
 POWELL| Reached  17% of maximal function calls                     8.3069363439
 POWELL| Reached  18% of maximal function calls                     8.3069363439
 POWELL| Reached  19% of maximal function calls                     8.3069361180
 POWELL| Reached  20% of maximal function calls                     8.3069361180
 POWELL| Reached  20% of maximal function calls                     8.3069348527
 POWELL| Reached  21% of maximal function calls                     8.3069348527
 POWELL| Reached  22% of maximal function calls                     8.3069329543
 POWELL| Reached  23% of maximal function calls                     8.3069271633
 POWELL| Reached  24% of maximal function calls                     8.3068934175
 POWELL| Reached  24% of maximal function calls                     8.3067685091
 POWELL| Reached  25% of maximal function calls                     8.3062514813
 POWELL| Reached  26% of maximal function calls                     8.3052683389
 POWELL| Reached  27% of maximal function calls                     8.3044320187
 POWELL| Reached  28% of maximal function calls                     8.3038782318
 POWELL| Reached  28% of maximal function calls                     8.3038782318
 POWELL| Reached  29% of maximal function calls                     8.3038705420
 POWELL| Reached  30% of maximal function calls                     8.3038632401
 POWELL| Reached  31% of maximal function calls                     8.3038458406
 POWELL| Reached  32% of maximal function calls                     8.3038302572
 POWELL| Reached  32% of maximal function calls                     8.3038302572
 POWELL| Reached  33% of maximal function calls                     8.3038292975
 POWELL| Reached  34% of maximal function calls                     8.3038263697
 POWELL| Reached  35% of maximal function calls                     8.3038263697
 POWELL| Reached  36% of maximal function calls                     8.3038251921
 POWELL| Reached  36% of maximal function calls                     8.3038251921
 POWELL| Reached  37% of maximal function calls                     8.3038202114
 POWELL| Reached  38% of maximal function calls                     8.3038179581
 POWELL| Reached  39% of maximal function calls                     8.3038123676
 POWELL| Reached  40% of maximal function calls                     8.3038123676
 POWELL| Reached  40% of maximal function calls                     8.3038066856
 POWELL| Reached  41% of maximal function calls                     8.3037740275
 POWELL| Reached  42% of maximal function calls                     8.3036446033
 POWELL| Reached  43% of maximal function calls                     8.3036416940
 POWELL| Reached  44% of maximal function calls                     8.3036033869
 POWELL| Reached  44% of maximal function calls                     8.3035887675
 POWELL| Reached  45% of maximal function calls                     8.3035828270
 POWELL| Reached  46% of maximal function calls                     8.3035807443
 POWELL| Reached  47% of maximal function calls                     8.3035800761
 POWELL| Reached  48% of maximal function calls                     8.3035781123
 POWELL| Reached  48% of maximal function calls                     8.3035734996
 POWELL| Reached  49% of maximal function calls                     8.3035716479
 POWELL| Reached  50% of maximal function calls                     8.3035691071
 POWELL| Reached  51% of maximal function calls                     8.3035660336
 POWELL| Reached  52% of maximal function calls                     8.3035630345
 POWELL| Reached  52% of maximal function calls                     8.3035573113
 POWELL| Reached  53% of maximal function calls                     8.3035547487
 POWELL| Reached  54% of maximal function calls                     8.3035509374
 POWELL| Reached  55% of maximal function calls                     8.3035492180
 POWELL| Reached  56% of maximal function calls                     8.3035473513
 POWELL| Reached  56% of maximal function calls                     8.3035444121
 POWELL| Reached  57% of maximal function calls                     8.3035398299
 POWELL| Reached  58% of maximal function calls                     8.3035350156
 POWELL| Reached  59% of maximal function calls                     8.3035332659
 POWELL| Reached  60% of maximal function calls                     8.3035302565
 POWELL| Reached  60% of maximal function calls                     8.3035269501
 POWELL| Reached  61% of maximal function calls                     8.3035221502
 POWELL| Reached  62% of maximal function calls                     8.3035187960
 POWELL| Reached  63% of maximal function calls                     8.3035155481
 POWELL| Reached  64% of maximal function calls                     8.3035139766
 POWELL| Reached  64% of maximal function calls                     8.3035127785
 POWELL| Reached  65% of maximal function calls                     8.3035127785
 POWELL| Reached  66% of maximal function calls                     8.3035120831
 POWELL| Reached  67% of maximal function calls                     8.3035093848
 POWELL| Reached  68% of maximal function calls                     8.3035069293
 POWELL| Reached  68% of maximal function calls                     8.3035069293
 POWELL| Reached  69% of maximal function calls                     8.3035069293
 POWELL| Reached  70% of maximal function calls                     8.3035054945
 POWELL| Reached  71% of maximal function calls                     8.3035028662
 POWELL| Reached  72% of maximal function calls                     8.3034994684
 POWELL| Reached  72% of maximal function calls                     8.3034982534
 POWELL| Reached  73% of maximal function calls                     8.3034957826
 POWELL| Reached  74% of maximal function calls                     8.3034949451
 POWELL| Reached  75% of maximal function calls                     8.3034949451
 POWELL| Reached  76% of maximal function calls                     8.3034935094
 POWELL| Reached  76% of maximal function calls                     8.3034898786
 POWELL| Reached  77% of maximal function calls                     8.3034882706
 POWELL| Reached  78% of maximal function calls                     8.3034865934
 POWELL| Reached  79% of maximal function calls                     8.3034834318
 POWELL| Reached  80% of maximal function calls                     8.3034805457
 POWELL| Reached  80% of maximal function calls                     8.3034776470
 POWELL| Reached  81% of maximal function calls                     8.3034748145
 POWELL| Reached  82% of maximal function calls                     8.3034706786
 POWELL| Reached  83% of maximal function calls                     8.3034695183
 POWELL| Reached  84% of maximal function calls                     8.3034694248
 POWELL| Reached  84% of maximal function calls                     8.3034679037
 POWELL| Reached  85% of maximal function calls                     8.3034646701
 POWELL| Reached  86% of maximal function calls                     8.3034614290
 POWELL| Reached  87% of maximal function calls                     8.3034614290
 POWELL| Reached  88% of maximal function calls                     8.3034595404
 POWELL| Reached  88% of maximal function calls                     8.3034559212
 POWELL| Reached  89% of maximal function calls                     8.3034512516
 POWELL| Reached  90% of maximal function calls                     8.3034476420
 POWELL| Reached  91% of maximal function calls                     8.3034442776
 POWELL| Reached  92% of maximal function calls                     8.3034430276
 POWELL| Reached  92% of maximal function calls                     8.3034422536
 POWELL| Reached  93% of maximal function calls                     8.3034412993
 POWELL| Reached  94% of maximal function calls                     8.3034400092
 POWELL| Reached  95% of maximal function calls                     8.3034382491
 POWELL| Reached  96% of maximal function calls                     8.3034380919
 POWELL| Reached  96% of maximal function calls                     8.3034353407
 POWELL| Reached  97% of maximal function calls                     8.3034320264
 POWELL| Reached  98% of maximal function calls                     8.3034304566
 POWELL| Reached  99% of maximal function calls                     8.3034290652
 POWELL| Reached 100% of maximal function calls                     8.3034258165
 POWELL| Reached 100% of maximal function calls                     8.3034258165
 POWELL| Exceeding maximum number of steps
 POWELL| Reached 100% of maximal function calls                     8.3034258165
 POWELL| RMS average of variables                                   0.0000280737
 POWELL| Start optimization   2 of total  50               rhobeg =   0.00009800
 POWELL| Inital value of function                                   8.3034258165
 POWELL| Reached   1% of maximal function calls                     8.3034258165
 POWELL| Reached   2% of maximal function calls                     8.3034258165
 POWELL| Reached   3% of maximal function calls                     8.3034258165
 POWELL| Reached   4% of maximal function calls                     8.3034258165
 POWELL| Reached   4% of maximal function calls                     8.3034258165
 POWELL| Reached   5% of maximal function calls                     8.3034258165
 POWELL| Reached   6% of maximal function calls                     8.3034258165
 POWELL| Reached   7% of maximal function calls                     8.3034258165
 POWELL| Reached   8% of maximal function calls                     8.3034258165
 POWELL| Reached   8% of maximal function calls                     8.2890941888
 POWELL| Reached   9% of maximal function calls                     8.2890941888
 POWELL| Reached  10% of maximal function calls                     8.2890941888
 POWELL| Reached  11% of maximal function calls                     8.2890941888
 POWELL| Reached  12% of maximal function calls                     8.2884965930
 POWELL| Reached  12% of maximal function calls                     8.2884965930
 POWELL| Reached  13% of maximal function calls                     8.2876678482
 POWELL| Reached  14% of maximal function calls                     8.2868514082
 POWELL| Reached  15% of maximal function calls                     8.2863129470
 POWELL| Reached  16% of maximal function calls                     8.2863050636
 POWELL| Reached  16% of maximal function calls                     8.2862825620
 POWELL| Reached  17% of maximal function calls                     8.2862825620
 POWELL| Reached  18% of maximal function calls                     8.2862825620
 POWELL| Reached  19% of maximal function calls                     8.2862762627
 POWELL| Reached  20% of maximal function calls                     8.2862581178
 POWELL| Reached  20% of maximal function calls                     8.2862389197
 POWELL| Reached  21% of maximal function calls                     8.2862326958
 POWELL| Reached  22% of maximal function calls                     8.2861664785
 POWELL| Reached  23% of maximal function calls                     8.2861322105
 POWELL| Reached  24% of maximal function calls                     8.2858702992
 POWELL| Reached  24% of maximal function calls                     8.2848474029
 POWELL| Reached  25% of maximal function calls                     8.2848310964
 POWELL| Reached  26% of maximal function calls                     8.2846028361
 POWELL| Reached  27% of maximal function calls                     8.2845993417
 POWELL| Reached  28% of maximal function calls                     8.2845572079
 POWELL| Reached  28% of maximal function calls                     8.2845251041
 POWELL| Reached  29% of maximal function calls                     8.2845191997
 POWELL| Reached  30% of maximal function calls                     8.2845131747
 POWELL| Reached  31% of maximal function calls                     8.2844673614
 POWELL| Reached  32% of maximal function calls                     8.2844247643
 POWELL| Reached  32% of maximal function calls                     8.2843915269
 POWELL| Reached  33% of maximal function calls                     8.2843511424
 POWELL| Reached  34% of maximal function calls                     8.2843511424
 POWELL| Reached  35% of maximal function calls                     8.2842898638
 POWELL| Reached  36% of maximal function calls                     8.2842464862
 POWELL| Reached  36% of maximal function calls                     8.2842144468
 POWELL| Reached  37% of maximal function calls                     8.2841563123
 POWELL| Reached  38% of maximal function calls                     8.2841338435
 POWELL| Reached  39% of maximal function calls                     8.2840914199
 POWELL| Reached  40% of maximal function calls                     8.2840914199
 POWELL| Reached  40% of maximal function calls                     8.2840781650
 POWELL| Reached  41% of maximal function calls                     8.2840490919
 POWELL| Reached  42% of maximal function calls                     8.2840490919
 POWELL| Reached  43% of maximal function calls                     8.2840255307
 POWELL| Reached  44% of maximal function calls                     8.2839717056
 POWELL| Reached  44% of maximal function calls                     8.2839489697
 POWELL| Reached  45% of maximal function calls                     8.2839489697
 POWELL| Reached  46% of maximal function calls                     8.2839402523
 POWELL| Reached  47% of maximal function calls                     8.2838823029
 POWELL| Reached  48% of maximal function calls                     8.2838368081
 POWELL| Reached  48% of maximal function calls                     8.2837969990
 POWELL| Reached  49% of maximal function calls                     8.2837569822
 POWELL| Reached  50% of maximal function calls                     8.2836994134
 POWELL| Reached  51% of maximal function calls                     8.2836818966
 POWELL| Reached  52% of maximal function calls                     8.2836251244
 POWELL| Reached  52% of maximal function calls                     8.2836140412
 POWELL| Reached  53% of maximal function calls                     8.2835526653
 POWELL| Reached  54% of maximal function calls                     8.2835526653
 POWELL| Reached  55% of maximal function calls                     8.2835327357
 POWELL| Reached  56% of maximal function calls                     8.2834892093
 POWELL| Reached  56% of maximal function calls                     8.2834726602
 POWELL| Reached  57% of maximal function calls                     8.2834691584
 POWELL| Reached  58% of maximal function calls                     8.2834467932
 POWELL| Reached  59% of maximal function calls                     8.2833971218
 POWELL| Reached  60% of maximal function calls                     8.2833604118
 POWELL| Reached  60% of maximal function calls                     8.2833100273
 POWELL| Reached  61% of maximal function calls                     8.2832787932
 POWELL| Reached  62% of maximal function calls                     8.2832770210
 POWELL| Reached  63% of maximal function calls                     8.2832497626
 POWELL| Reached  64% of maximal function calls                     8.2832058697
 POWELL| Reached  64% of maximal function calls                     8.2831625814
 POWELL| Reached  65% of maximal function calls                     8.2831534755
 POWELL| Reached  66% of maximal function calls                     8.2831138513
 POWELL| Reached  67% of maximal function calls                     8.2830896834
 POWELL| Reached  68% of maximal function calls                     8.2830605415
 POWELL| Reached  68% of maximal function calls                     8.2830334791
 POWELL| Reached  69% of maximal function calls                     8.2829976304
 POWELL| Reached  70% of maximal function calls                     8.2829767683
 POWELL| Reached  71% of maximal function calls                     8.2829556250
 POWELL| Reached  72% of maximal function calls                     8.2829338950
 POWELL| Reached  72% of maximal function calls                     8.2828886832
 POWELL| Reached  73% of maximal function calls                     8.2828886832
 POWELL| Reached  74% of maximal function calls                     8.2828431291
 POWELL| Reached  75% of maximal function calls                     8.2828240006
 POWELL| Reached  76% of maximal function calls                     8.2827909437
 POWELL| Reached  76% of maximal function calls                     8.2827706118
 POWELL| Reached  77% of maximal function calls                     8.2827263653
 POWELL| Reached  78% of maximal function calls                     8.2826752645
 POWELL| Reached  79% of maximal function calls                     8.2826725840
 POWELL| Reached  80% of maximal function calls                     8.2826531040
 POWELL| Reached  80% of maximal function calls                     8.2826145077
 POWELL| Reached  81% of maximal function calls                     8.2825908292
 POWELL| Reached  82% of maximal function calls                     8.2825429682
 POWELL| Reached  83% of maximal function calls                     8.2825343804
 POWELL| Reached  84% of maximal function calls                     8.2825201230
 POWELL| Reached  84% of maximal function calls                     8.2824844417
 POWELL| Reached  85% of maximal function calls                     8.2824811444
 POWELL| Reached  86% of maximal function calls                     8.2824433790
 POWELL| Reached  87% of maximal function calls                     8.2824057217
 POWELL| Reached  88% of maximal function calls                     8.2823885730
 POWELL| Reached  88% of maximal function calls                     8.2823872904
 POWELL| Reached  89% of maximal function calls                     8.2823674197
 POWELL| Reached  90% of maximal function calls                     8.2823560608
 POWELL| Reached  91% of maximal function calls                     8.2822948889
 POWELL| Reached  92% of maximal function calls                     8.2822674936
 POWELL| Reached  92% of maximal function calls                     8.2822485053
 POWELL| Reached  93% of maximal function calls                     8.2822150250
 POWELL| Reached  94% of maximal function calls                     8.2821901172
 POWELL| Reached  95% of maximal function calls                     8.2821657467
 POWELL| Reached  96% of maximal function calls                     8.2821447974
 POWELL| Reached  96% of maximal function calls                     8.2821156757
 POWELL| Reached  97% of maximal function calls                     8.2820443273
 POWELL| Reached  98% of maximal function calls                     8.2820386115
 POWELL| Reached  99% of maximal function calls                     8.2820341873
 POWELL| Reached 100% of maximal function calls                     8.2820341873
 POWELL| Reached 100% of maximal function calls                     8.2820341873
 POWELL| Exceeding maximum number of steps
 POWELL| Reached 100% of maximal function calls                     8.2820341873
 POWELL| RMS average of variables                                   0.0000299246
 POWELL| Start optimization   3 of total  50               rhobeg =   0.00009604
 POWELL| Inital value of function                                   8.2820341873
 POWELL| Reached   1% of maximal function calls                     8.2820341873
 POWELL| Reached   2% of maximal function calls                     8.2820341873
 POWELL| Reached   3% of maximal function calls                     8.2820341873
 POWELL| Reached   4% of maximal function calls                     8.2820341873
 POWELL| Reached   4% of maximal function calls                     8.2820341873
 POWELL| Reached   5% of maximal function calls                     8.2820341873
 POWELL| Reached   6% of maximal function calls                     8.2820341873
 POWELL| Reached   7% of maximal function calls                     8.2820341873
 POWELL| Reached   8% of maximal function calls                     8.2820341873
 POWELL| Reached   8% of maximal function calls                     8.2763110460
 POWELL| Reached   9% of maximal function calls                     8.2763110460
 POWELL| Reached  10% of maximal function calls                     8.2763110460
 POWELL| Reached  11% of maximal function calls                     8.2763110460
 POWELL| Reached  12% of maximal function calls                     8.2761185555
 POWELL| Reached  12% of maximal function calls                     8.2761185555
 POWELL| Reached  13% of maximal function calls                     8.2752875573
 POWELL| Reached  14% of maximal function calls                     8.2742553362
 POWELL| Reached  15% of maximal function calls                     8.2735375634
 POWELL| Reached  16% of maximal function calls                     8.2735361827
 POWELL| Reached  16% of maximal function calls                     8.2735361827
 POWELL| Reached  17% of maximal function calls                     8.2735361827
 POWELL| Reached  18% of maximal function calls                     8.2735301004
 POWELL| Reached  19% of maximal function calls                     8.2735184609
 POWELL| Reached  20% of maximal function calls                     8.2734928543
 POWELL| Reached  20% of maximal function calls                     8.2734484484
 POWELL| Reached  21% of maximal function calls                     8.2733982278
 POWELL| Reached  22% of maximal function calls                     8.2733852035
 POWELL| Reached  23% of maximal function calls                     8.2733650233
 POWELL| Reached  24% of maximal function calls                     8.2733200468
 POWELL| Reached  24% of maximal function calls                     8.2730113099
 POWELL| Reached  25% of maximal function calls                     8.2718054268
 POWELL| Reached  26% of maximal function calls                     8.2674375393
 POWELL| Reached  27% of maximal function calls                     8.2626387986
 POWELL| Reached  28% of maximal function calls                     8.2626387986
 POWELL| Reached  28% of maximal function calls                     8.2621722735
 POWELL| Reached  29% of maximal function calls                     8.2621264267
 POWELL| Reached  30% of maximal function calls                     8.2621264267
 POWELL| Reached  31% of maximal function calls                     8.2620895686
 POWELL| Reached  32% of maximal function calls                     8.2620818213
 POWELL| Reached  32% of maximal function calls                     8.2620714012
 POWELL| Reached  33% of maximal function calls                     8.2620714012
 POWELL| Reached  34% of maximal function calls                     8.2620714012
 POWELL| Reached  35% of maximal function calls                     8.2620657281
 POWELL| Reached  36% of maximal function calls                     8.2620249044
 POWELL| Reached  36% of maximal function calls                     8.2619896172
 POWELL| Reached  37% of maximal function calls                     8.2619337269
 POWELL| Reached  38% of maximal function calls                     8.2618804574
 POWELL| Reached  39% of maximal function calls                     8.2618651854
 POWELL| Reached  40% of maximal function calls                     8.2618511323
 POWELL| Reached  40% of maximal function calls                     8.2617867933
 POWELL| Reached  41% of maximal function calls                     8.2614048122
 POWELL| Reached  42% of maximal function calls                     8.2599457800
 POWELL| Reached  43% of maximal function calls                     8.2599225995
 POWELL| Reached  44% of maximal function calls                     8.2599225995
 POWELL| Reached  44% of maximal function calls                     8.2598614346
 POWELL| Reached  45% of maximal function calls                     8.2598096252
 POWELL| Reached  46% of maximal function calls                     8.2597877631
 POWELL| Reached  47% of maximal function calls                     8.2597846290
 POWELL| Reached  48% of maximal function calls                     8.2597681299
 POWELL| Reached  48% of maximal function calls                     8.2597283284
 POWELL| Reached  49% of maximal function calls                     8.2596948581
 POWELL| Reached  50% of maximal function calls                     8.2596580334
 POWELL| Reached  51% of maximal function calls                     8.2596401124
 POWELL| Reached  52% of maximal function calls                     8.2596104282
 POWELL| Reached  52% of maximal function calls                     8.2595696128
 POWELL| Reached  53% of maximal function calls                     8.2595248583
 POWELL| Reached  54% of maximal function calls                     8.2595099516
 POWELL| Reached  55% of maximal function calls                     8.2594899802
 POWELL| Reached  56% of maximal function calls                     8.2594701353
 POWELL| Reached  56% of maximal function calls                     8.2594434000
 POWELL| Reached  57% of maximal function calls                     8.2594172817
 POWELL| Reached  58% of maximal function calls                     8.2593701102
 POWELL| Reached  59% of maximal function calls                     8.2593346166
 POWELL| Reached  60% of maximal function calls                     8.2592836458
 POWELL| Reached  60% of maximal function calls                     8.2592218487
 POWELL| Reached  61% of maximal function calls                     8.2591191349
 POWELL| Reached  62% of maximal function calls                     8.2590046771
 POWELL| Reached  63% of maximal function calls                     8.2589458735
 POWELL| Reached  64% of maximal function calls                     8.2589458735
 POWELL| Reached  64% of maximal function calls                     8.2589269770
 POWELL| Reached  65% of maximal function calls                     8.2588968836
 POWELL| Reached  66% of maximal function calls                     8.2588850622
 POWELL| Reached  67% of maximal function calls                     8.2588772915
 POWELL| Reached  68% of maximal function calls                     8.2588516591
 POWELL| Reached  68% of maximal function calls                     8.2588173508
 POWELL| Reached  69% of maximal function calls                     8.2587932862
 POWELL| Reached  70% of maximal function calls                     8.2587747219
 POWELL| Reached  71% of maximal function calls                     8.2587123277
 POWELL| Reached  72% of maximal function calls                     8.2586899207
 POWELL| Reached  72% of maximal function calls                     8.2586632251
 POWELL| Reached  73% of maximal function calls                     8.2586238938
 POWELL| Reached  74% of maximal function calls                     8.2586035451
 POWELL| Reached  75% of maximal function calls                     8.2585852855
 POWELL| Reached  76% of maximal function calls                     8.2585852855
 POWELL| Reached  76% of maximal function calls                     8.2585768524
 POWELL| Reached  77% of maximal function calls                     8.2585673899
 POWELL| Reached  78% of maximal function calls                     8.2585491578
 POWELL| Reached  79% of maximal function calls                     8.2585348669
 POWELL| Reached  80% of maximal function calls                     8.2584949559
 POWELL| Reached  80% of maximal function calls                     8.2584578781
 POWELL| Reached  81% of maximal function calls                     8.2584451374
 POWELL| Reached  82% of maximal function calls                     8.2583981415
 POWELL| Reached  83% of maximal function calls                     8.2583746209
 POWELL| Reached  84% of maximal function calls                     8.2583353141
 POWELL| Reached  84% of maximal function calls                     8.2583312769
 POWELL| Reached  85% of maximal function calls                     8.2583203162
 POWELL| Reached  86% of maximal function calls                     8.2583092303
 POWELL| Reached  87% of maximal function calls                     8.2582955911
 POWELL| Reached  88% of maximal function calls                     8.2582639106
 POWELL| Reached  88% of maximal function calls                     8.2582605727
 POWELL| Reached  89% of maximal function calls                     8.2582331052
 POWELL| Reached  90% of maximal function calls                     8.2581907173
 POWELL| Reached  91% of maximal function calls                     8.2581736118
 POWELL| Reached  92% of maximal function calls                     8.2581628955
 POWELL| Reached  92% of maximal function calls                     8.2581628955
 POWELL| Reached  93% of maximal function calls                     8.2581458076
 POWELL| Reached  94% of maximal function calls                     8.2581242632
 POWELL| Reached  95% of maximal function calls                     8.2581029885
 POWELL| Reached  96% of maximal function calls                     8.2580944106
 POWELL| Reached  96% of maximal function calls                     8.2580908364
 POWELL| Reached  97% of maximal function calls                     8.2580570973
 POWELL| Reached  98% of maximal function calls                     8.2580451435
 POWELL| Reached  99% of maximal function calls                     8.2580058733
 POWELL| Reached 100% of maximal function calls                     8.2579670949
 POWELL| Reached 100% of maximal function calls                     8.2579644310
 POWELL| Exceeding maximum number of steps
 POWELL| Reached 100% of maximal function calls                     8.2579644310
 POWELL| RMS average of variables                                   0.0000293222
 POWELL| Start optimization   4 of total  50               rhobeg =   0.00009412
 POWELL| Inital value of function                                   8.2579644310
 POWELL| Reached   1% of maximal function calls                     8.2579644310
 POWELL| Reached   2% of maximal function calls                     8.2579644310
 POWELL| Reached   3% of maximal function calls                     8.2527829703
 POWELL| Reached   4% of maximal function calls                     8.2527829703
 POWELL| Reached   4% of maximal function calls                     8.2527829703
 POWELL| Reached   5% of maximal function calls                     8.2527829703
 POWELL| Reached   6% of maximal function calls                     8.2527829703
 POWELL| Reached   7% of maximal function calls                     8.2527829703
 POWELL| Reached   8% of maximal function calls                     8.2527829703
 POWELL| Reached   8% of maximal function calls                     8.2501773137
 POWELL| Reached   9% of maximal function calls                     8.2501773137
 POWELL| Reached  10% of maximal function calls                     8.2501773137
 POWELL| Reached  11% of maximal function calls                     8.2501773137
 POWELL| Reached  12% of maximal function calls                     8.2496496092
 POWELL| Reached  12% of maximal function calls                     8.2496496092
 POWELL| Reached  13% of maximal function calls                     8.2489072996
 POWELL| Reached  14% of maximal function calls                     8.2481249246
 POWELL| Reached  15% of maximal function calls                     8.2476085064
 POWELL| Reached  16% of maximal function calls                     8.2475999977
 POWELL| Reached  16% of maximal function calls                     8.2475999977
 POWELL| Reached  17% of maximal function calls                     8.2475999977
 POWELL| Reached  18% of maximal function calls                     8.2475948121
 POWELL| Reached  19% of maximal function calls                     8.2475634578
 POWELL| Reached  20% of maximal function calls                     8.2475243975
 POWELL| Reached  20% of maximal function calls                     8.2475085841
 POWELL| Reached  21% of maximal function calls                     8.2475063247
 POWELL| Reached  22% of maximal function calls                     8.2474964350
 POWELL| Reached  23% of maximal function calls                     8.2474724425
 POWELL| Reached  24% of maximal function calls                     8.2474398306
 POWELL| Reached  24% of maximal function calls                     8.2474205289
 POWELL| Reached  25% of maximal function calls                     8.2473252822
 POWELL| Reached  26% of maximal function calls                     8.2472349726
 POWELL| Reached  27% of maximal function calls                     8.2471505870
 POWELL| Reached  28% of maximal function calls                     8.2470688572
 POWELL| Reached  28% of maximal function calls                     8.2469830867
 POWELL| Reached  29% of maximal function calls                     8.2469195087
 POWELL| Reached  30% of maximal function calls                     8.2468152802
 POWELL| Reached  31% of maximal function calls                     8.2467155774
 POWELL| Reached  32% of maximal function calls                     8.2466536315
 POWELL| Reached  32% of maximal function calls                     8.2465386392
 POWELL| Reached  33% of maximal function calls                     8.2464377352
 POWELL| Reached  34% of maximal function calls                     8.2463281950
 POWELL| Reached  35% of maximal function calls                     8.2461399144
 POWELL| Reached  36% of maximal function calls                     8.2461180772
 POWELL| Reached  36% of maximal function calls                     8.2461180772
 POWELL| Reached  37% of maximal function calls                     8.2461180772
 POWELL| Reached  38% of maximal function calls                     8.2461180772
 POWELL| Reached  39% of maximal function calls                     8.2460907403
 POWELL| Reached  40% of maximal function calls                     8.2460529696
 POWELL| Reached  40% of maximal function calls                     8.2460297725
 POWELL| Reached  41% of maximal function calls                     8.2460058554
 POWELL| Reached  42% of maximal function calls                     8.2459752216
 POWELL| Reached  43% of maximal function calls                     8.2459207327
 POWELL| Reached  44% of maximal function calls                     8.2458957343
 POWELL| Reached  44% of maximal function calls                     8.2458790853
 POWELL| Reached  45% of maximal function calls                     8.2458275358
 POWELL| Reached  46% of maximal function calls                     8.2458244584
 POWELL| Reached  47% of maximal function calls                     8.2458109439
 POWELL| Reached  48% of maximal function calls                     8.2457954062
 POWELL| Reached  48% of maximal function calls                     8.2457954062
 POWELL| Reached  49% of maximal function calls                     8.2457752201
 POWELL| Reached  50% of maximal function calls                     8.2457362147
 POWELL| Reached  51% of maximal function calls                     8.2457056198
 POWELL| Reached  52% of maximal function calls                     8.2456487375
 POWELL| Reached  52% of maximal function calls                     8.2456487375
 POWELL| Reached  53% of maximal function calls                     8.2456364374
 POWELL| Reached  54% of maximal function calls                     8.2456364374
 POWELL| Reached  55% of maximal function calls                     8.2456106754
 POWELL| Reached  56% of maximal function calls                     8.2456106754
 POWELL| Reached  56% of maximal function calls                     8.2455863386
 POWELL| Reached  57% of maximal function calls                     8.2455706018
 POWELL| Reached  58% of maximal function calls                     8.2455216497
 POWELL| Reached  59% of maximal function calls                     8.2455216497
 POWELL| Reached  60% of maximal function calls                     8.2454968405
 POWELL| Reached  60% of maximal function calls                     8.2454601780
 POWELL| Reached  61% of maximal function calls                     8.2454601780
 POWELL| Reached  62% of maximal function calls                     8.2454390181
 POWELL| Reached  63% of maximal function calls                     8.2454390181
 POWELL| Reached  64% of maximal function calls                     8.2454294660
 POWELL| Reached  64% of maximal function calls                     8.2454159500
 POWELL| Reached  65% of maximal function calls                     8.2454159500
 POWELL| Reached  66% of maximal function calls                     8.2453935500
 POWELL| Reached  67% of maximal function calls                     8.2453811464
 POWELL| Reached  68% of maximal function calls                     8.2453230238
 POWELL| Reached  68% of maximal function calls                     8.2453036251
 POWELL| Reached  69% of maximal function calls                     8.2452741674
 POWELL| Reached  70% of maximal function calls                     8.2452437267
 POWELL| Reached  71% of maximal function calls                     8.2452437267
 POWELL| Reached  72% of maximal function calls                     8.2452266453
 POWELL| Reached  72% of maximal function calls                     8.2452116614
 POWELL| Reached  73% of maximal function calls                     8.2452116614
 POWELL| Reached  74% of maximal function calls                     8.2451928495
 POWELL| Reached  75% of maximal function calls                     8.2451633663
 POWELL| Reached  76% of maximal function calls                     8.2451521763
 POWELL| Reached  76% of maximal function calls                     8.2451387209
 POWELL| Reached  77% of maximal function calls                     8.2451387209
 POWELL| Reached  78% of maximal function calls                     8.2451353768
 POWELL| Reached  79% of maximal function calls                     8.2450968020
 POWELL| Reached  80% of maximal function calls                     8.2450877587
 POWELL| Reached  80% of maximal function calls                     8.2450612958
 POWELL| Reached  81% of maximal function calls                     8.2450400130
 POWELL| Reached  82% of maximal function calls                     8.2450129628
 POWELL| Reached  83% of maximal function calls                     8.2449735234
 POWELL| Reached  84% of maximal function calls                     8.2449459363
 POWELL| Reached  84% of maximal function calls                     8.2449386823
 POWELL| Reached  85% of maximal function calls                     8.2448951728
 POWELL| Reached  86% of maximal function calls                     8.2448840905
 POWELL| Reached  87% of maximal function calls                     8.2448466725
 POWELL| Reached  88% of maximal function calls                     8.2448426726
 POWELL| Reached  88% of maximal function calls                     8.2448205794
 POWELL| Reached  89% of maximal function calls                     8.2448205794
 POWELL| Reached  90% of maximal function calls                     8.2447819937
 POWELL| Reached  91% of maximal function calls                     8.2447718500
 POWELL| Reached  92% of maximal function calls                     8.2447362620
 POWELL| Reached  92% of maximal function calls                     8.2447216822
 POWELL| Reached  93% of maximal function calls                     8.2446853130
 POWELL| Reached  94% of maximal function calls                     8.2446826031
 POWELL| Reached  95% of maximal function calls                     8.2446634154
 POWELL| Reached  96% of maximal function calls                     8.2446118748
 POWELL| Reached  96% of maximal function calls                     8.2445453731
 POWELL| Reached  97% of maximal function calls                     8.2445335829
 POWELL| Reached  98% of maximal function calls                     8.2445075885
 POWELL| Reached  99% of maximal function calls                     8.2444956647
 POWELL| Reached 100% of maximal function calls                     8.2444379686
 POWELL| Reached 100% of maximal function calls                     8.2443681346
 POWELL| Exceeding maximum number of steps
 POWELL| Reached 100% of maximal function calls                     8.2443681346
 POWELL| RMS average of variables                                   0.0000287037
 POWELL| Start optimization   5 of total  50               rhobeg =   0.00009224
 POWELL| Inital value of function                                   8.2443681346
 POWELL| Reached   1% of maximal function calls                     8.2443681346
 POWELL| Reached   2% of maximal function calls                     8.2443681346
 POWELL| Reached   3% of maximal function calls                     8.2345468842
 POWELL| Reached   4% of maximal function calls                     8.2345468842
 POWELL| Reached   4% of maximal function calls                     8.2344064868
 POWELL| Reached   5% of maximal function calls                     8.2344064868
 POWELL| Reached   6% of maximal function calls                     8.2344064868
 POWELL| Reached   7% of maximal function calls                     8.2344064868
 POWELL| Reached   8% of maximal function calls                     8.2344064868
 POWELL| Reached   8% of maximal function calls                     8.2344064868
 POWELL| Reached   9% of maximal function calls                     8.2344064868
 POWELL| Reached  10% of maximal function calls                     8.2344064868
 POWELL| Reached  11% of maximal function calls                     8.2344064868
 POWELL| Reached  12% of maximal function calls                     8.2344064868
 POWELL| Reached  12% of maximal function calls                     8.2338995400
 POWELL| Reached  13% of maximal function calls                     8.2338432127
 POWELL| Reached  14% of maximal function calls                     8.2337873424
 POWELL| Reached  15% of maximal function calls                     8.2337482858
 POWELL| Reached  16% of maximal function calls                     8.2337482858
 POWELL| Reached  16% of maximal function calls                     8.2337467208
 POWELL| Reached  17% of maximal function calls                     8.2337467208
 POWELL| Reached  18% of maximal function calls                     8.2337467117
 POWELL| Reached  19% of maximal function calls                     8.2337464990
 POWELL| Reached  20% of maximal function calls                     8.2337464990
 POWELL| Reached  20% of maximal function calls                     8.2337464990
 POWELL| Reached  21% of maximal function calls                     8.2337454019
 POWELL| Reached  22% of maximal function calls                     8.2337454019
 POWELL| Reached  23% of maximal function calls                     8.2337454019
 POWELL| Reached  24% of maximal function calls                     8.2337453039
 POWELL| Reached  24% of maximal function calls                     8.2337422421
 POWELL| Reached  25% of maximal function calls                     8.2337417427
 POWELL| Reached  26% of maximal function calls                     8.2337382207
 POWELL| Reached  27% of maximal function calls                     8.2337375167
 POWELL| Reached  28% of maximal function calls                     8.2337324251
 POWELL| Reached  28% of maximal function calls                     8.2337319817
 POWELL| Reached  29% of maximal function calls                     8.2337319817
 POWELL| Reached  30% of maximal function calls                     8.2337319817
 POWELL| Reached  31% of maximal function calls                     8.2337318565
 POWELL| Reached  32% of maximal function calls                     8.2337317375
 POWELL| Reached  32% of maximal function calls                     8.2337281753
 POWELL| Reached  33% of maximal function calls                     8.2337257850
 POWELL| Reached  34% of maximal function calls                     8.2337229800
 POWELL| Reached  35% of maximal function calls                     8.2337210313
 POWELL| Reached  36% of maximal function calls                     8.2337152463
 POWELL| Reached  36% of maximal function calls                     8.2337118671
 POWELL| Reached  37% of maximal function calls                     8.2337115455
 POWELL| Reached  38% of maximal function calls                     8.2337090491
 POWELL| Reached  39% of maximal function calls                     8.2337071621
 POWELL| Reached  40% of maximal function calls                     8.2337046383
 POWELL| Reached  40% of maximal function calls                     8.2337037133
 POWELL| Reached  41% of maximal function calls                     8.2337037133
 POWELL| Reached  42% of maximal function calls                     8.2337023475
 POWELL| Reached  43% of maximal function calls                     8.2337002574
 POWELL| Reached  44% of maximal function calls                     8.2336979715
 POWELL| Reached  44% of maximal function calls                     8.2336953250
 POWELL| Reached  45% of maximal function calls                     8.2336938476
 POWELL| Reached  46% of maximal function calls                     8.2336912448
 POWELL| Reached  47% of maximal function calls                     8.2336884779
 POWELL| Reached  48% of maximal function calls                     8.2336884779
 POWELL| Reached  48% of maximal function calls                     8.2336827485
 POWELL| Reached  49% of maximal function calls                     8.2336799146
 POWELL| Reached  50% of maximal function calls                     8.2336762231
 POWELL| Reached  51% of maximal function calls                     8.2336739462
 POWELL| Reached  52% of maximal function calls                     8.2336739462
 POWELL| Reached  52% of maximal function calls                     8.2336705556
 POWELL| Reached  53% of maximal function calls                     8.2336703069
 POWELL| Reached  54% of maximal function calls                     8.2336690140
 POWELL| Reached  55% of maximal function calls                     8.2336666617
 POWELL| Reached  56% of maximal function calls                     8.2336605151
 POWELL| Reached  56% of maximal function calls                     8.2336482391
 POWELL| Reached  57% of maximal function calls                     8.2336458677
 POWELL| Reached  58% of maximal function calls                     8.2336449418
 POWELL| Reached  59% of maximal function calls                     8.2336439268
 POWELL| Reached  60% of maximal function calls                     8.2336428417
 POWELL| Reached  60% of maximal function calls                     8.2336418361
 POWELL| Reached  61% of maximal function calls                     8.2336410194
 POWELL| Reached  62% of maximal function calls                     8.2336391890
 POWELL| Reached  63% of maximal function calls                     8.2336337471
 POWELL| Reached  64% of maximal function calls                     8.2336317687
 POWELL| Reached  64% of maximal function calls                     8.2336289364
 POWELL| Reached  65% of maximal function calls                     8.2336247464
 POWELL| Reached  66% of maximal function calls                     8.2336227662
 POWELL| Reached  67% of maximal function calls                     8.2336175530
 POWELL| Reached  68% of maximal function calls                     8.2336164158
 POWELL| Reached  68% of maximal function calls                     8.2336151753
 POWELL| Reached  69% of maximal function calls                     8.2336134706
 POWELL| Reached  70% of maximal function calls                     8.2336109077
 POWELL| Reached  71% of maximal function calls                     8.2336077459
 POWELL| Reached  72% of maximal function calls                     8.2336037517
 POWELL| Reached  72% of maximal function calls                     8.2336000409
 POWELL| Reached  73% of maximal function calls                     8.2336000409
 POWELL| Reached  74% of maximal function calls                     8.2335957765
 POWELL| Reached  75% of maximal function calls                     8.2335930354
 POWELL| Reached  76% of maximal function calls                     8.2335851328
 POWELL| Reached  76% of maximal function calls                     8.2335839379
 POWELL| Reached  77% of maximal function calls                     8.2335823107
 POWELL| Reached  78% of maximal function calls                     8.2335807271
 POWELL| Reached  79% of maximal function calls                     8.2335802828
 POWELL| Reached  80% of maximal function calls                     8.2335778925
 POWELL| Reached  80% of maximal function calls                     8.2335758577
 POWELL| Reached  81% of maximal function calls                     8.2335724454
 POWELL| Reached  82% of maximal function calls                     8.2335698136
 POWELL| Reached  83% of maximal function calls                     8.2335687571
 POWELL| Reached  84% of maximal function calls                     8.2335641821
 POWELL| Reached  84% of maximal function calls                     8.2335614984
 POWELL| Reached  85% of maximal function calls                     8.2335579161
 POWELL| Reached  86% of maximal function calls                     8.2335536950
 POWELL| Reached  87% of maximal function calls                     8.2335519000
 POWELL| Reached  88% of maximal function calls                     8.2335519000
 POWELL| Reached  88% of maximal function calls                     8.2335507175
 POWELL| Reached  89% of maximal function calls                     8.2335459143
 POWELL| Reached  90% of maximal function calls                     8.2335432058
 POWELL| Reached  91% of maximal function calls                     8.2335403458
 POWELL| Reached  92% of maximal function calls                     8.2335392453
 POWELL| Reached  92% of maximal function calls                     8.2335371741
 POWELL| Reached  93% of maximal function calls                     8.2335362169
 POWELL| Reached  94% of maximal function calls                     8.2335349118
 POWELL| Reached  95% of maximal function calls                     8.2335288351
 POWELL| Reached  96% of maximal function calls                     8.2335270288
 POWELL| Reached  96% of maximal function calls                     8.2335244297
 POWELL| Reached  97% of maximal function calls                     8.2335225643
 POWELL| Reached  98% of maximal function calls                     8.2335211524
 POWELL| Reached  99% of maximal function calls                     8.2335191042
 POWELL| Reached 100% of maximal function calls                     8.2335159251
 POWELL| Reached 100% of maximal function calls                     8.2335141726
 POWELL| Exceeding maximum number of steps
 POWELL| Reached 100% of maximal function calls                     8.2335141726
 POWELL| RMS average of variables                                   0.0000259007
 POWELL| Start optimization   6 of total  50               rhobeg =   0.00009039
 POWELL| Inital value of function                                   8.2335141726
 POWELL| Reached   1% of maximal function calls                     8.2322105315
 POWELL| Reached   2% of maximal function calls                     8.2322105315
 POWELL| Reached   3% of maximal function calls                     8.2290718730
 POWELL| Reached   4% of maximal function calls                     8.2290718730
 POWELL| Reached   4% of maximal function calls                     8.2290718730
 POWELL| Reached   5% of maximal function calls                     8.2290718730
 POWELL| Reached   6% of maximal function calls                     8.2290718730
 POWELL| Reached   7% of maximal function calls                     8.2290718730
 POWELL| Reached   8% of maximal function calls                     8.1779406075
 POWELL| Reached   8% of maximal function calls                     8.1779406075
 POWELL| Reached   9% of maximal function calls                     8.1779406075
 POWELL| Reached  10% of maximal function calls                     8.1779406075
 POWELL| Reached  11% of maximal function calls                     8.1779406075
 POWELL| Reached  12% of maximal function calls                     8.1779406075
 POWELL| Reached  12% of maximal function calls                     8.1779406075
 POWELL| Reached  13% of maximal function calls                     8.1758687514
 POWELL| Reached  14% of maximal function calls                     8.1685180366
 POWELL| Reached  15% of maximal function calls                     8.1685180366
 POWELL| Reached  16% of maximal function calls                     8.1682143220
 POWELL| Reached  16% of maximal function calls                     8.1680379828
 POWELL| Reached  17% of maximal function calls                     8.1678147589
 POWELL| Reached  18% of maximal function calls                     8.1678147589
 POWELL| Reached  19% of maximal function calls                     8.1677841221
 POWELL| Reached  20% of maximal function calls                     8.1676318936
 POWELL| Reached  20% of maximal function calls                     8.1674992829
 POWELL| Reached  21% of maximal function calls                     8.1668418597
 POWELL| Reached  22% of maximal function calls                     8.1653237566
 POWELL| Reached  23% of maximal function calls                     8.1649968070
 POWELL| Reached  24% of maximal function calls                     8.1620143126
 POWELL| Reached  24% of maximal function calls                     8.1606444345
 POWELL| Reached  25% of maximal function calls                     8.1595023109
 POWELL| Reached  26% of maximal function calls                     8.1595023109
 POWELL| Reached  27% of maximal function calls                     8.1579771686
 POWELL| Reached  28% of maximal function calls                     8.1547721074
 POWELL| Reached  28% of maximal function calls                     8.1522313284
 POWELL| Reached  29% of maximal function calls                     8.1516458444
 POWELL| Reached  30% of maximal function calls                     8.1473873547
 POWELL| Reached  31% of maximal function calls                     8.1225514214
 POWELL| Reached  32% of maximal function calls                     8.0313232034
 POWELL| Reached  32% of maximal function calls                     8.0300723578
 POWELL| Reached  33% of maximal function calls                     8.0288562172
 POWELL| Reached  34% of maximal function calls                     8.0285436875
 POWELL| Reached  35% of maximal function calls                     8.0283835897
 POWELL| Reached  36% of maximal function calls                     8.0282138784
 POWELL| Reached  36% of maximal function calls                     8.0280628676
 POWELL| Reached  37% of maximal function calls                     8.0280628676
 POWELL| Reached  38% of maximal function calls                     8.0257483436
 POWELL| Reached  39% of maximal function calls                     8.0237073154
 POWELL| Reached  40% of maximal function calls                     8.0221782406
 POWELL| Reached  40% of maximal function calls                     8.0203732216
 POWELL| Reached  41% of maximal function calls                     8.0188453106
 POWELL| Reached  42% of maximal function calls                     8.0172303691
 POWELL| Reached  43% of maximal function calls                     8.0137558468
 POWELL| Reached  44% of maximal function calls                     8.0128582669
 POWELL| Reached  44% of maximal function calls                     8.0115519739
 POWELL| Reached  45% of maximal function calls                     8.0055520885
 POWELL| Reached  46% of maximal function calls                     8.0055520885
 POWELL| Reached  47% of maximal function calls                     8.0055520885
 POWELL| Reached  48% of maximal function calls                     8.0055520885
 POWELL| Reached  48% of maximal function calls                     8.0055520885
 POWELL| Reached  49% of maximal function calls                     8.0055520885
 POWELL| Reached  50% of maximal function calls                     8.0055520885
 POWELL| Reached  51% of maximal function calls                     8.0055520885
 POWELL| Reached  52% of maximal function calls                     8.0055520885
 POWELL| Reached  52% of maximal function calls                     8.0039282566
 POWELL| Reached  53% of maximal function calls                     8.0039282566
 POWELL| Reached  54% of maximal function calls                     8.0022998008
 POWELL| Reached  55% of maximal function calls                     8.0022998008
 POWELL| Reached  56% of maximal function calls                     8.0022998008
 POWELL| Reached  56% of maximal function calls                     8.0022998008
 POWELL| Reached  57% of maximal function calls                     8.0022998008
 POWELL| Reached  58% of maximal function calls                     8.0022998008
 POWELL| Reached  59% of maximal function calls                     8.0022218983
 POWELL| Reached  60% of maximal function calls                     8.0021603118
 POWELL| Reached  60% of maximal function calls                     8.0020723927
 POWELL| Reached  61% of maximal function calls                     8.0019696452
 POWELL| Reached  62% of maximal function calls                     8.0019180667
 POWELL| Reached  63% of maximal function calls                     8.0018172286
 POWELL| Reached  64% of maximal function calls                     8.0016840941
 POWELL| Reached  64% of maximal function calls                     8.0016047487
 POWELL| Reached  65% of maximal function calls                     8.0016047487
 POWELL| Reached  66% of maximal function calls                     8.0016047487
 POWELL| Reached  67% of maximal function calls                     8.0016047487
 POWELL| Reached  68% of maximal function calls                     8.0016047487
 POWELL| Reached  68% of maximal function calls                     8.0014629537
 POWELL| Reached  69% of maximal function calls                     8.0011182260
 POWELL| Reached  70% of maximal function calls                     7.9973614282
 POWELL| Reached  71% of maximal function calls                     7.9973614282
 POWELL| Reached  72% of maximal function calls                     7.9973614282
 POWELL| Reached  72% of maximal function calls                     7.9973614282
 POWELL| Reached  73% of maximal function calls                     7.9973614282
 POWELL| Reached  74% of maximal function calls                     7.9973614282
 POWELL| Reached  75% of maximal function calls                     7.9973614282
 POWELL| Reached  76% of maximal function calls                     7.9973614282
 POWELL| Reached  76% of maximal function calls                     7.9973614282
 POWELL| Reached  77% of maximal function calls                     7.9973614282
 POWELL| Reached  78% of maximal function calls                     7.9973614282
 POWELL| Reached  79% of maximal function calls                     7.9973614282
 POWELL| Reached  80% of maximal function calls                     7.9973614282
 POWELL| Reached  80% of maximal function calls                     7.9973365647
 POWELL| Reached  81% of maximal function calls                     7.9973337884
 POWELL| Reached  82% of maximal function calls                     7.9973326838
 POWELL| Reached  83% of maximal function calls                     7.9973326838
 POWELL| Reached  84% of maximal function calls                     7.9973326838
 POWELL| Reached  84% of maximal function calls                     7.9973326838
 POWELL| Reached  85% of maximal function calls                     7.9973275558
 POWELL| Reached  86% of maximal function calls                     7.9973275558
 POWELL| Reached  87% of maximal function calls                     7.9973119070
 POWELL| Reached  88% of maximal function calls                     7.9973077262
 POWELL| Reached  88% of maximal function calls                     7.9972969169
 POWELL| Reached  89% of maximal function calls                     7.9972969169
 POWELL| Reached  90% of maximal function calls                     7.9972969169
 POWELL| Reached  91% of maximal function calls                     7.9972969169
 POWELL| Reached  92% of maximal function calls                     7.9972969169
 POWELL| Reached  92% of maximal function calls                     7.9972825658
 POWELL| Reached  93% of maximal function calls                     7.9972681989
 POWELL| Reached  94% of maximal function calls                     7.9972651705
 POWELL| Reached  95% of maximal function calls                     7.9972598246
 POWELL| Reached  96% of maximal function calls                     7.9972598246
 POWELL| Reached  96% of maximal function calls                     7.9972429542
 POWELL| Reached  97% of maximal function calls                     7.9972279036
 POWELL| Reached  98% of maximal function calls                     7.9972279036
 POWELL| Reached  99% of maximal function calls                     7.9972279036
 POWELL| Reached 100% of maximal function calls                     7.9972146674
 POWELL| Reached 100% of maximal function calls                     7.9972146674
 POWELL| Exceeding maximum number of steps
 POWELL| Reached 100% of maximal function calls                     7.9972146674
 POWELL| RMS average of variables                                   0.0000249410
 POWELL| Start optimization   7 of total  50               rhobeg =   0.00008858
 POWELL| Inital value of function                                   7.9972146674
 POWELL| Reached   1% of maximal function calls                     7.9972146674
 POWELL| Reached   2% of maximal function calls                     7.9972146674
 POWELL| Reached   3% of maximal function calls                     7.9488712778
 POWELL| Reached   4% of maximal function calls                     7.9488712778
 POWELL| Reached   4% of maximal function calls                     7.9120446766
 POWELL| Reached   5% of maximal function calls                     7.9120446766
 POWELL| Reached   6% of maximal function calls                     7.9120446766
 POWELL| Reached   7% of maximal function calls                     7.9004250340
 POWELL| Reached   8% of maximal function calls                     7.9004250340
 POWELL| Reached   8% of maximal function calls                     7.9004250340
 POWELL| Reached   9% of maximal function calls                     7.9004250340
 POWELL| Reached  10% of maximal function calls                     7.9004250340
 POWELL| Reached  11% of maximal function calls                     7.9004250340
 POWELL| Reached  12% of maximal function calls                     7.8933959037
 POWELL| Reached  12% of maximal function calls                     7.8933959037
 POWELL| Reached  13% of maximal function calls                     7.8920217989
 POWELL| Reached  14% of maximal function calls                     7.8888798137
 POWELL| Reached  15% of maximal function calls                     7.8888594643
 POWELL| Reached  16% of maximal function calls                     7.8888557027
 POWELL| Reached  16% of maximal function calls                     7.8888557027
 POWELL| Reached  17% of maximal function calls                     7.8888368841
 POWELL| Reached  18% of maximal function calls                     7.8888259969
 POWELL| Reached  19% of maximal function calls                     7.8888142731
 POWELL| Reached  20% of maximal function calls                     7.8888132002
 POWELL| Reached  20% of maximal function calls                     7.8887636195
 POWELL| Reached  21% of maximal function calls                     7.8885958141
 POWELL| Reached  22% of maximal function calls                     7.8885922648
 POWELL| Reached  23% of maximal function calls                     7.8885858652
 POWELL| Reached  24% of maximal function calls                     7.8885637298
 POWELL| Reached  24% of maximal function calls                     7.8885302474
 POWELL| Reached  25% of maximal function calls                     7.8883779972
 POWELL| Reached  26% of maximal function calls                     7.8882632445
 POWELL| Reached  27% of maximal function calls                     7.8881969975
 POWELL| Reached  28% of maximal function calls                     7.8881627108
 POWELL| Reached  28% of maximal function calls                     7.8881077206
 POWELL| Reached  29% of maximal function calls                     7.8880096591
 POWELL| Reached  30% of maximal function calls                     7.8879468263
 POWELL| Reached  31% of maximal function calls                     7.8877588040
 POWELL| Reached  32% of maximal function calls                     7.8877163786
 POWELL| Reached  32% of maximal function calls                     7.8876487656
 POWELL| Reached  33% of maximal function calls                     7.8875247097
 POWELL| Reached  34% of maximal function calls                     7.8875247097
 POWELL| Reached  35% of maximal function calls                     7.8874638248
 POWELL| Reached  36% of maximal function calls                     7.8873707503
 POWELL| Reached  36% of maximal function calls                     7.8872520280
 POWELL| Reached  37% of maximal function calls                     7.8871829261
 POWELL| Reached  38% of maximal function calls                     7.8871521637
 POWELL| Reached  39% of maximal function calls                     7.8870942797
 POWELL| Reached  40% of maximal function calls                     7.8869958974
 POWELL| Reached  40% of maximal function calls                     7.8868147856
 POWELL| Reached  41% of maximal function calls                     7.8867596931
[...]
 POWELL| Reached  77% of maximal function calls                     5.2963514352
 POWELL| Reached  78% of maximal function calls                     5.2963503390
 POWELL| Reached  79% of maximal function calls                     5.2963503390
 POWELL| Reached  80% of maximal function calls                     5.2963422237
 POWELL| Reached  80% of maximal function calls                     5.2963360854
 POWELL| Reached  81% of maximal function calls                     5.2963256047
 POWELL| Reached  82% of maximal function calls                     5.2963222339
 POWELL| Reached  83% of maximal function calls                     5.2963138505
 POWELL| Reached  84% of maximal function calls                     5.2963001676
 POWELL| Reached  84% of maximal function calls                     5.2962927285
 POWELL| Reached  85% of maximal function calls                     5.2962923164
 POWELL| Reached  86% of maximal function calls                     5.2962915409
 POWELL| Reached  87% of maximal function calls                     5.2962908894
 POWELL| Reached  88% of maximal function calls                     5.2962787603
 POWELL| Reached  88% of maximal function calls                     5.2962544819
 POWELL| Reached  89% of maximal function calls                     5.2962525103
 POWELL| Reached  90% of maximal function calls                     5.2962487294
 POWELL| Reached  91% of maximal function calls                     5.2962428030
 POWELL| Reached  92% of maximal function calls                     5.2962375838
 POWELL| Reached  92% of maximal function calls                     5.2962330720
 POWELL| Reached  93% of maximal function calls                     5.2962264108
 POWELL| Reached  94% of maximal function calls                     5.2962256614
 POWELL| Reached  95% of maximal function calls                     5.2962196295
 POWELL| Reached  96% of maximal function calls                     5.2962160745
 POWELL| Reached  96% of maximal function calls                     5.2962085712
 POWELL| Reached  97% of maximal function calls                     5.2962069988
 POWELL| Reached  98% of maximal function calls                     5.2961996975
 POWELL| Reached  99% of maximal function calls                     5.2961951919
 POWELL| Reached 100% of maximal function calls                     5.2961857834
 POWELL| Reached 100% of maximal function calls                     5.2961823900
 POWELL| Exceeding maximum number of steps
 POWELL| Reached 100% of maximal function calls                     5.2961823900
 POWELL| RMS average of variables                                   0.0000117414
 POWELL| Start optimization  50 of total  50               rhobeg =   0.00003716
 POWELL| Inital value of function                                   5.2961823900
 POWELL| Reached   1% of maximal function calls                     5.2951620756
 POWELL| Reached   2% of maximal function calls                     5.2951620756
 POWELL| Reached   3% of maximal function calls                     5.2847667038
 POWELL| Reached   4% of maximal function calls                     5.2847667038
 POWELL| Reached   4% of maximal function calls                     5.2831756375
 POWELL| Reached   5% of maximal function calls                     5.2831756375
 POWELL| Reached   6% of maximal function calls                     5.2831756375
 POWELL| Reached   7% of maximal function calls                     5.2831756375
 POWELL| Reached   8% of maximal function calls                     5.2674493957
 POWELL| Reached   8% of maximal function calls                     5.2674493957
 POWELL| Reached   9% of maximal function calls                     5.2674493957
 POWELL| Reached  10% of maximal function calls                     5.2674493957
 POWELL| Reached  11% of maximal function calls                     5.2674493957
 POWELL| Reached  12% of maximal function calls                     5.2674493957
 POWELL| Reached  12% of maximal function calls                     5.2674493957
 POWELL| Reached  13% of maximal function calls                     5.2672334054
 POWELL| Reached  14% of maximal function calls                     5.2672220967
 POWELL| Reached  15% of maximal function calls                     5.2662568171
 POWELL| Reached  16% of maximal function calls                     5.2662542733
 POWELL| Reached  16% of maximal function calls                     5.2662485738
 POWELL| Reached  17% of maximal function calls                     5.2662382485
 POWELL| Reached  18% of maximal function calls                     5.2662382485
 POWELL| Reached  19% of maximal function calls                     5.2662382485
 POWELL| Reached  20% of maximal function calls                     5.2662382485
 POWELL| Reached  20% of maximal function calls                     5.2662179450
 POWELL| Reached  21% of maximal function calls                     5.2660549555
 POWELL| Reached  22% of maximal function calls                     5.2654955403
 POWELL| Reached  23% of maximal function calls                     5.2632807957
 POWELL| Reached  24% of maximal function calls                     5.2548000564
 POWELL| Reached  24% of maximal function calls                     5.2458271558
 POWELL| Reached  25% of maximal function calls                     5.2352142459
 POWELL| Reached  26% of maximal function calls                     5.2344726176
 POWELL| Reached  27% of maximal function calls                     5.2340246010
 POWELL| Reached  28% of maximal function calls                     5.2335843651
 POWELL| Reached  28% of maximal function calls                     5.2335342479
 POWELL| Reached  29% of maximal function calls                     5.2335342479
 POWELL| Reached  30% of maximal function calls                     5.2334879793
 POWELL| Reached  31% of maximal function calls                     5.2334621632
 POWELL| Reached  32% of maximal function calls                     5.2334345431
 POWELL| Reached  32% of maximal function calls                     5.2334195811
 POWELL| Reached  33% of maximal function calls                     5.2333989036
 POWELL| Reached  34% of maximal function calls                     5.2333610363
 POWELL| Reached  35% of maximal function calls                     5.2333174861
 POWELL| Reached  36% of maximal function calls                     5.2333051925
 POWELL| Reached  36% of maximal function calls                     5.2332914665
 POWELL| Reached  37% of maximal function calls                     5.2332084078
 POWELL| Reached  38% of maximal function calls                     5.2327782367
 POWELL| Reached  39% of maximal function calls                     5.2310802545
 POWELL| Reached  40% of maximal function calls                     5.2246514743
 POWELL| Reached  40% of maximal function calls                     5.2047361746
 POWELL| Reached  41% of maximal function calls                     5.2047361746
 POWELL| Reached  42% of maximal function calls                     5.2047361746
 POWELL| Reached  43% of maximal function calls                     5.2047361746
 POWELL| Reached  44% of maximal function calls                     5.2047029325
 POWELL| Reached  44% of maximal function calls                     5.2047015206
 POWELL| Reached  45% of maximal function calls                     5.2046759927
 POWELL| Reached  46% of maximal function calls                     5.2046759927
 POWELL| Reached  47% of maximal function calls                     5.2046759927
 POWELL| Reached  48% of maximal function calls                     5.2046759927
 POWELL| Reached  48% of maximal function calls                     5.2046754690
 POWELL| Reached  49% of maximal function calls                     5.2046745879
 POWELL| Reached  50% of maximal function calls                     5.2046478376
 POWELL| Reached  51% of maximal function calls                     5.2046268190
 POWELL| Reached  52% of maximal function calls                     5.2045919952
 POWELL| Reached  52% of maximal function calls                     5.2045829299
 POWELL| Reached  53% of maximal function calls                     5.2045698038
 POWELL| Reached  54% of maximal function calls                     5.2045626291
 POWELL| Reached  55% of maximal function calls                     5.2045562104
 POWELL| Reached  56% of maximal function calls                     5.2045272881
 POWELL| Reached  56% of maximal function calls                     5.2044079033
 POWELL| Reached  57% of maximal function calls                     5.2039356049
 POWELL| Reached  58% of maximal function calls                     5.2021327279
 POWELL| Reached  59% of maximal function calls                     5.1962984381
 POWELL| Reached  60% of maximal function calls                     5.1961723327
 POWELL| Reached  60% of maximal function calls                     5.1951724433
 POWELL| Reached  61% of maximal function calls                     5.1951206771
 POWELL| Reached  62% of maximal function calls                     5.1951171620
 POWELL| Reached  63% of maximal function calls                     5.1950898262
 POWELL| Reached  64% of maximal function calls                     5.1950823268
 POWELL| Reached  64% of maximal function calls                     5.1950815689
 POWELL| Reached  65% of maximal function calls                     5.1950815689
 POWELL| Reached  66% of maximal function calls                     5.1950654757
 POWELL| Reached  67% of maximal function calls                     5.1950567747
 POWELL| Reached  68% of maximal function calls                     5.1950471830
 POWELL| Reached  68% of maximal function calls                     5.1950383616
 POWELL| Reached  69% of maximal function calls                     5.1950222819
 POWELL| Reached  70% of maximal function calls                     5.1950043272
 POWELL| Reached  71% of maximal function calls                     5.1950043272
 POWELL| Reached  72% of maximal function calls                     5.1950043272
 POWELL| Reached  72% of maximal function calls                     5.1950001013
 POWELL| Reached  73% of maximal function calls                     5.1949905916
 POWELL| Reached  74% of maximal function calls                     5.1949235605
 POWELL| Reached  75% of maximal function calls                     5.1946600091
 POWELL| Reached  76% of maximal function calls                     5.1936770802
 POWELL| Reached  76% of maximal function calls                     5.1925398272
 POWELL| Reached  77% of maximal function calls                     5.1925398272
 POWELL| Reached  78% of maximal function calls                     5.1924352981
 POWELL| Reached  79% of maximal function calls                     5.1924289053
 POWELL| Reached  80% of maximal function calls                     5.1924238116
 POWELL| Reached  80% of maximal function calls                     5.1924207144
 POWELL| Reached  81% of maximal function calls                     5.1924198572
 POWELL| Reached  82% of maximal function calls                     5.1924198572
 POWELL| Reached  83% of maximal function calls                     5.1924094644
 POWELL| Reached  84% of maximal function calls                     5.1924042871
 POWELL| Reached  84% of maximal function calls                     5.1923964638
 POWELL| Reached  85% of maximal function calls                     5.1923882852
 POWELL| Reached  86% of maximal function calls                     5.1923815033
 POWELL| Reached  87% of maximal function calls                     5.1923673444
 POWELL| Reached  88% of maximal function calls                     5.1923518159
 POWELL| Reached  88% of maximal function calls                     5.1923512372
 POWELL| Reached  89% of maximal function calls                     5.1923512372
 POWELL| Reached  90% of maximal function calls                     5.1923463059
 POWELL| Reached  91% of maximal function calls                     5.1923424531
 POWELL| Reached  92% of maximal function calls                     5.1923414714
 POWELL| Reached  92% of maximal function calls                     5.1923367298
 POWELL| Reached  93% of maximal function calls                     5.1923298239
 POWELL| Reached  94% of maximal function calls                     5.1923219661
 POWELL| Reached  95% of maximal function calls                     5.1923219661
 POWELL| Reached  96% of maximal function calls                     5.1923152939
 POWELL| Reached  96% of maximal function calls                     5.1923078848
 POWELL| Reached  97% of maximal function calls                     5.1923008833
 POWELL| Reached  98% of maximal function calls                     5.1922893847
 POWELL| Reached  99% of maximal function calls                     5.1922729373
 POWELL| Reached 100% of maximal function calls                     5.1922647246
 POWELL| Reached 100% of maximal function calls                     5.1922647246
 POWELL| Exceeding maximum number of steps
 POWELL| Reached 100% of maximal function calls                     5.1922647246
 POWELL| RMS average of variables                                   0.0000103885
 POWELL| Number of function evaluations                                      250
 POWELL| Final value of function                                    5.1922647246

 POWELL| Final errors of target values

 Reference configuration          1               Method number                1
    L    N    Occupation      Eigenvalue [eV]           dE [eV]          dCharge 
    0    1          2.00      -110.9829483264 SC  -0.014656[12]     0.000007[ X]
    0    2          2.00        -5.6347235869 VA   0.002184[79]     0.001604[ 0]
    0    3          0.00         0.9776856352 U1  -0.002576[ X]     0.000444[ X]
    0    4          0.00         6.7343534053 U2  -0.010926[ X]     0.000794[ 0]
    1    1          6.00       -71.3204487722 SC   0.007095[ 1]     0.000068[ X]
    1    2          0.00        -1.1728075613 U1   0.003060[ 0]    -0.000040[ X]
    1    3          0.00         2.8276837537 U2   0.001314[ X]    -0.000016[ 0]
    2    1          8.00        -8.8705173916 VA   0.000679[ 3]     0.000499[ 0]
    2    2          0.00         2.1038709612 U1   0.002472[ X]    -0.000175[ X]
    2    3          0.00         6.8452429639 U2   0.010182[ X]    -0.001456[ 0]
    3    1          0.00         4.0737098480 U1   0.001185[ X]    -0.000006[ X]
    s-states N=    1                   Wavefunction at r=0:        -0.005531[ 0]
    s-states N=    2                   Wavefunction at r=0:        -0.282440[ 0]
    s-states N=    3                   Wavefunction at r=0:         0.149446[ 0]
    s-states N=    4                   Wavefunction at r=0:        -0.214706[ 0]

 Number of target values reached:                                      12 of  19



                             NORMAL TERMINATION OF     
                                                       
                           ****  ******  ****   ****   
                          **  ** ****** **  ** ******  
                          ******   **   **  ** **  **  
                          **  **   **    ****  **  **  


 -------------------------------------------------------------------------------
 -                                                                             -
 -                                DBCSR STATISTICS                             -
 -                                                                             -
 -------------------------------------------------------------------------------
 COUNTER                                    TOTAL       BLAS       SMM       ACC
 flops inhomo. stacks                           0       0.0%      0.0%      0.0%
 flops total                         0.000000E+00       0.0%      0.0%      0.0%
 flops max/rank                      0.000000E+00       0.0%      0.0%      0.0%
 matmuls inhomo. stacks                         0       0.0%      0.0%      0.0%
 matmuls total                                  0       0.0%      0.0%      0.0%
 number of processed stacks                     0       0.0%      0.0%      0.0%
 average stack size                                     0.0       0.0       0.0
 marketing flops                     0.000000E+00
 -------------------------------------------------------------------------------

 MEMORY| Estimated peak process memory [MiB]                                  49

 -------------------------------------------------------------------------------
 -                                                                             -
 -                           R E F E R E N C E S                               -
 -                                                                             -
 -------------------------------------------------------------------------------
 
 CP2K version 7.0 (Development Version), the CP2K developers group (2018).
 CP2K is freely available from https://www.cp2k.org/ .

 Schuett, Ole; Messmer, Peter; Hutter, Juerg; VandeVondele, Joost. 
 Electronic Structure Calculations on Graphics Processing Units, John Wiley & Sons, Ltd, 173-190 (2016). 
 GPU-Accelerated Sparse Matrix-Matrix Multiplication for Linear Scaling Density Functional Theory.
 http://dx.doi.org/10.1002/9781118670712.ch8


 Borstnik, U; VandeVondele, J; Weber, V; Hutter, J. 
 PARALLEL COMPUTING, 40 (5-6), 47-58 (2014). 
 Sparse matrix multiplication: The distributed block-compressed sparse
 row library.
 http://dx.doi.org/10.1016/j.parco.2014.03.012


 Hutter, J; Iannuzzi, M; Schiffmann, F; VandeVondele, J. 
 WILEY INTERDISCIPLINARY REVIEWS-COMPUTATIONAL MOLECULAR SCIENCE, 4 (1), 15-25 (2014). 
 CP2K: atomistic simulations of condensed matter systems.
 http://dx.doi.org/10.1002/wcms.1159


 Frigo, M; Johnson, SG. 
 PROCEEDINGS OF THE IEEE, 93 (2), 216-231 (2005). 
 The design and implementation of FFTW3.
 http://dx.doi.org/10.1109/JPROC.2004.840301


 Perdew, JP; Burke, K; Ernzerhof, M. 
 PHYSICAL REVIEW LETTERS, 77 (18), 3865-3868 (1996). 
 Generalized gradient approximation made simple.
 http://dx.doi.org/10.1103/PhysRevLett.77.3865


 -------------------------------------------------------------------------------
 -                                                                             -
 -                                T I M I N G                                  -
 -                                                                             -
 -------------------------------------------------------------------------------
 SUBROUTINE                       CALLS  ASD         SELF TIME        TOTAL TIME
                                MAXIMUM       AVERAGE  MAXIMUM  AVERAGE  MAXIMUM
 CP2K                                 1  1.0    0.002    0.002 3650.224 3650.224
 atom_code                            1  2.0    0.000    0.000 3650.221 3650.221
 atom_pseudo_opt                      1  3.0   17.567   17.567 3650.221 3650.221
 calculate_atom                   15307  4.0    0.037    0.037 3620.224 3620.224
 calculate_atom_restricted        15307  5.0 1263.555 1263.555 3620.186 3620.186
 calculate_atom_vxc_lda          764876  6.0 2203.876 2203.876 2356.631 2356.631
 xc_functional_eval              764876  7.0    1.679    1.679  152.115  152.115
 pbe_lda_eval                    764876  8.0  150.436  150.436  150.436  150.436
 -------------------------------------------------------------------------------

 The number of warnings for this run is : 0
 
 -------------------------------------------------------------------------------
  **** **** ******  **  PROGRAM ENDED AT                 2018-06-24 22:38:47.158
 ***** ** ***  *** **   PROGRAM RAN ON                                    tcpc01
 **    ****   ******    PROGRAM RAN BY                                    hutter
 ***** **    ** ** **   PROGRAM PROCESS ID                                  3464
  **** **  *******  **  PROGRAM STOPPED IN /data/hutter/pseudo/UZH2018/PBE/Ni/q1
                                           8
