
  **** **** ******  **  PROGRAM STARTED AT               2018-06-24 20:51:22.647
 ***** ** ***  *** **   PROGRAM STARTED ON                                tcpc01
 **    ****   ******    PROGRAM STARTED BY                                hutter
 ***** **    ** ** **   PROGRAM PROCESS ID                                  2757
  **** **  *******  **  PROGRAM STARTED IN /data/hutter/pseudo/UZH2018/PBE/Mn/q1
                                           5

 CP2K| version string:                    CP2K version 7.0 (Development Version)
 CP2K| source code revision number:                                    svn:18485
 CP2K| cp2kflags: libint fftw3 libxc libderiv_max_am1=5 libint_max_am=6 spglib  
 CP2K| is freely available from                            https://www.cp2k.org/
 CP2K| Program compiled at                         Wed Jun 20 10:41:43 CEST 2018
 CP2K| Program compiled on                                                tcpc01
 CP2K| Program compiled for                                                local
 CP2K| Data directory path                        /data/hutter/CURRENT/cp2k/data
 CP2K| Input file name                                                    Mn.inp

 GLOBAL| Method name                                                        ATOM
 GLOBAL| Project name                                                    PROJECT
 GLOBAL| Preferred FFT library                                             FFTW3
 GLOBAL| Preferred diagonalization lib.                                       SL
 GLOBAL| Run type                                                   ENERGY_FORCE
 GLOBAL| All-to-all communication in single precision                          F
 GLOBAL| FFTs using library dependent lengths                                  F
 GLOBAL| Global print level                                               MEDIUM
 GLOBAL| Total number of message passing processes                             1
 GLOBAL| Number of threads for this process                                    1
 GLOBAL| This output is from process                                           0
 GLOBAL| CPU model name :  Intel(R) Xeon(R) CPU           X5570  @ 2.93GHz

 MEMORY| system memory details [Kb]
 MEMORY|                        rank 0           min           max       average
 MEMORY| MemTotal             37009584      37009584      37009584      37009584
 MEMORY| MemFree              32403044      32403044      32403044      32403044
 MEMORY| Buffers                299152        299152        299152        299152
 MEMORY| Cached                2033372       2033372       2033372       2033372
 MEMORY| Slab                   271736        271736        271736        271736
 MEMORY| SReclaimable           203700        203700        203700        203700
 MEMORY| MemLikelyFree        34939268      34939268      34939268      34939268


 *** Fundamental physical constants (SI units) ***

 *** Literature: B. J. Mohr and B. N. Taylor,
 ***             CODATA recommended values of the fundamental physical
 ***             constants: 2006, Web Version 5.1
 ***             http://physics.nist.gov/constants

 Speed of light in vacuum [m/s]                             2.99792458000000E+08
 Magnetic constant or permeability of vacuum [N/A**2]       1.25663706143592E-06
 Electric constant or permittivity of vacuum [F/m]          8.85418781762039E-12
 Planck constant (h) [J*s]                                  6.62606896000000E-34
 Planck constant (h-bar) [J*s]                              1.05457162825177E-34
 Elementary charge [C]                                      1.60217648700000E-19
 Electron mass [kg]                                         9.10938215000000E-31
 Electron g factor [ ]                                     -2.00231930436220E+00
 Proton mass [kg]                                           1.67262163700000E-27
 Fine-structure constant                                    7.29735253760000E-03
 Rydberg constant [1/m]                                     1.09737315685270E+07
 Avogadro constant [1/mol]                                  6.02214179000000E+23
 Boltzmann constant [J/K]                                   1.38065040000000E-23
 Atomic mass unit [kg]                                      1.66053878200000E-27
 Bohr radius [m]                                            5.29177208590000E-11

 *** Conversion factors ***

 [u] -> [a.u.]                                              1.82288848426455E+03
 [Angstrom] -> [Bohr] = [a.u.]                              1.88972613288564E+00
 [a.u.] = [Bohr] -> [Angstrom]                              5.29177208590000E-01
 [a.u.] -> [s]                                              2.41888432650478E-17
 [a.u.] -> [fs]                                             2.41888432650478E-02
 [a.u.] -> [J]                                              4.35974393937059E-18
 [a.u.] -> [N]                                              8.23872205491840E-08
 [a.u.] -> [K]                                              3.15774647902944E+05
 [a.u.] -> [kJ/mol]                                         2.62549961709828E+03
 [a.u.] -> [kcal/mol]                                       6.27509468713739E+02
 [a.u.] -> [Pa]                                             2.94210107994716E+13
 [a.u.] -> [bar]                                            2.94210107994716E+08
 [a.u.] -> [atm]                                            2.90362800883016E+08
 [a.u.] -> [eV]                                             2.72113838565563E+01
 [a.u.] -> [Hz]                                             6.57968392072181E+15
 [a.u.] -> [1/cm] (wave numbers)                            2.19474631370540E+05
 [a.u./Bohr**2] -> [1/cm]                                   5.14048714338585E+03
 
 DBCSR| Multiplication driver                                               BLAS
 DBCSR| Multrec recursion limit                                              512
 DBCSR| Multiplication stack size                                           1000
 DBCSR| Maximum elements for images                                    UNLIMITED
 DBCSR| Multiplicative factor virtual images                                   1
 DBCSR| Multiplication size stacks                                             3



                           ****  ******  ****   ****   
                          **  ** ****** **  ** ******  
                          ******   **   **  ** **  **  
                          **  **   **    ****  **  **  
                                                       
                             University of Zurich      
                                 2009 - 2015           
                                                       
                                 Version 0.0           
                                                                   


 Atomic Energy Calculation             Manganese [Mn]        Atomic number:   25


 *******************************************************************************
 ************************** Calculate Reference States *************************
 *******************************************************************************

 METHOD    | Restricted Kohn-Sham Calculation
 METHOD    | Relativistic Calculation using Douglas-Kroll 3rd order
 FUNCTIONAL| ROUTINE=NEW
 FUNCTIONAL| PBE:
 FUNCTIONAL| J.P.Perdew, K.Burke, M.Ernzerhof, Phys. Rev. Letter, vol. 77, n 18,
 FUNCTIONAL|  pp. 3865-3868, (1996){spin unpolarized}                           

 Electronic structure
    Total number of core electrons                                          0.00
    Total number of valence electrons                                      25.00
    Total number of electrons                                              25.00
    Multiplicity                                                   not specified
    S      2.00  2.00  2.00  2.00
    P      6.00  6.00
    D      5.00


 *******************************************************************************
                  Iteration          Convergence                     Energy [au]
 *******************************************************************************
                          1         14.0303                   -1116.328247557118
                          2         6.04000                   -1092.089773349632
                          3         3.72797                   -1146.515261932677
                          4        0.366923                   -1157.910272441377
                          5        0.257148                   -1158.024271674750
                          6        0.611608E-01               -1158.119245987145
                          7        0.236125E-01               -1158.122246804350
                          8        0.247471E-03               -1158.122953379121
                          9        0.101422E-04               -1158.122953466876
                         10        0.254579E-05               -1158.122953466926
                         11        0.221279E-07               -1158.122953466937

 Energy components [Hartree]           Total Energy ::        -1158.122953466937
                                        Band Energy ::         -685.621431526208
                                     Kinetic Energy ::         1202.868144265593
                                   Potential Energy ::        -2360.991097732530
                                      Virial (-V/T) ::            1.962801250485
                                        Core Energy ::        -1593.999000665481
                                          XC Energy ::          -52.076007665570
                                     Coulomb Energy ::          487.952054864114
                                        Confinement ::            0.000000086729

 Orbital energies  State     L     Occupation   Energy[a.u.]          Energy[eV]

                       1     0          2.000    -236.088791        -6424.302724
                       2     0          2.000     -27.320215         -743.420847
                       3     0          2.000      -3.153735          -85.817485
                       4     0          2.000      -0.187409           -5.099661
                       5     0          0.000       0.036479            0.992644
                       6     0          0.000       0.257772            7.014332

                       1     1          6.000     -23.141603         -629.715031
                       2     1          6.000      -2.004680          -54.550117
                       3     1          0.000      -0.048775           -1.327247
                       4     1          0.000       0.093282            2.538339

                       1     2          5.000      -0.248687           -6.767126
                       2     2          0.000       0.069102            1.880373
                       3     2          0.000       0.232068            6.314884

                       1     3          0.000       0.149232            4.060812


 Total Electron Density at R=0:                                     20898.877364

 *******************************************************************************
 ********************* Optimize Pseudopotential Parameters *********************
 *******************************************************************************

 POWELL| Start optimization procedure

 POWELL| Total number of parameters in optimization                           13

 POWELL| Initial errors of target values

 Reference configuration          1               Method number                1
    L    N    Occupation      Eigenvalue [eV]           dE [eV]          dCharge 
    0    1          2.00       -85.8327691783 SC  -0.015284[ 5]    -0.000033[ X]
    0    2          2.00        -5.0966794262 VA   0.002981[63]     0.001127[ 0]
    0    3          0.00         0.9903277975 U1  -0.002316[ X]     0.000527[ X]
    0    4          0.00         7.0027526163 U2  -0.011579[ X]     0.001126[ 0]
    1    1          6.00       -54.5436146747 SC   0.006503[ 0]    -0.000151[ X]
    1    2          0.00        -1.2838862531 U1   0.043361[29]    -0.005175[ 0]
    1    3          0.00         2.5743283089 U2   0.035990[ 0]    -0.001590[ 0]
    2    1          5.00        -6.7662934058 VA   0.000832[ 2]    -0.000318[ 0]
    2    2          0.00         1.8821639004 U1   0.001791[ X]    -0.000080[ X]
    2    3          0.00         6.3227212665 U2   0.007838[ X]    -0.001072[ 0]
    3    1          0.00         4.0611235663 U1   0.000311[ X]    -0.000007[ X]

 Number of target values reached:                                      10 of  19

 POWELL| Start optimization   1 of total 100               rhobeg =   0.00040000
 POWELL| Inital value of function                                  13.1272153754
 POWELL| Reached   6% of maximal function calls                    13.1272153754
 POWELL| Reached   8% of maximal function calls                    13.1272153754
 POWELL| Reached  10% of maximal function calls                    13.1272153754
 POWELL| Reached  12% of maximal function calls                    13.1272153754
 POWELL| Reached  14% of maximal function calls                    13.1272153754
 POWELL| Reached  16% of maximal function calls                    13.1272153754
 POWELL| Reached  18% of maximal function calls                    13.1272153754
 POWELL| Reached  20% of maximal function calls                    13.1272153754
 POWELL| Reached  22% of maximal function calls                    13.1272153754
 POWELL| Reached  24% of maximal function calls                    13.1272153754
 POWELL| Reached  26% of maximal function calls                    13.1272153754
 POWELL| Reached  28% of maximal function calls                    13.1272153754
 POWELL| Reached  30% of maximal function calls                    13.1272153754
 POWELL| Reached  32% of maximal function calls                    13.1272153754
 POWELL| Reached  34% of maximal function calls                    13.1272153754
 POWELL| Reached  36% of maximal function calls                    13.1272153754
 POWELL| Reached  38% of maximal function calls                    13.1272153754
 POWELL| Reached  40% of maximal function calls                    13.1272153754
 POWELL| Reached  42% of maximal function calls                    13.1272153754
 POWELL| Reached  44% of maximal function calls                    13.1211593568
 POWELL| Reached  46% of maximal function calls                    13.1211593568
 POWELL| Reached  48% of maximal function calls                    13.1211593568
 POWELL| Reached  50% of maximal function calls                    13.1211593568
 POWELL| Reached  52% of maximal function calls                    13.1211593568
 POWELL| Reached  54% of maximal function calls                    13.1211593568
 POWELL| Reached  56% of maximal function calls                    13.1211593568
 POWELL| Reached  57% of maximal function calls                    13.1211593568
 POWELL| Reached  60% of maximal function calls                    13.1211593568
 POWELL| Reached  62% of maximal function calls                    13.1203372493
 POWELL| Reached  64% of maximal function calls                    13.1203372493
 POWELL| Reached  66% of maximal function calls                    13.1203372493
 POWELL| Reached  68% of maximal function calls                    13.1163781918
 POWELL| Reached  70% of maximal function calls                    13.1162284292
 POWELL| Reached  72% of maximal function calls                    13.1161692207
 POWELL| Reached  74% of maximal function calls                    13.1161692207
 POWELL| Reached  76% of maximal function calls                    13.1155300847
 POWELL| Reached  78% of maximal function calls                    13.1150646109
 POWELL| Reached  80% of maximal function calls                    13.1150440537
 POWELL| Reached  82% of maximal function calls                    13.1150440537
 POWELL| Reached  84% of maximal function calls                    13.1150440537
 POWELL| Reached  86% of maximal function calls                    13.1150311916
 POWELL| Reached  88% of maximal function calls                    13.1149862636
 POWELL| Reached  90% of maximal function calls                    13.1149862636
 POWELL| Reached  92% of maximal function calls                    13.1149862636
 POWELL| Reached  94% of maximal function calls                    13.1149862636
 POWELL| Reached  96% of maximal function calls                    13.1149862636
 POWELL| Reached  98% of maximal function calls                    13.1149438963
 POWELL| Reached 100% of maximal function calls                    13.1149055484
 POWELL| Reached 100% of maximal function calls                    13.1149055484
 POWELL| Exceeding maximum number of steps
 POWELL| Reached 100% of maximal function calls                    13.1149055484
 POWELL| RMS average of variables                                   0.0001116060
 POWELL| Start optimization   2 of total 100               rhobeg =   0.00039200
 POWELL| Inital value of function                                  13.1149055484
 POWELL| Reached   6% of maximal function calls                    13.1149055484
 POWELL| Reached   8% of maximal function calls                    13.1149055484
 POWELL| Reached  10% of maximal function calls                    13.1149055484
 POWELL| Reached  12% of maximal function calls                    13.1149055484
 POWELL| Reached  14% of maximal function calls                    13.0993887114
 POWELL| Reached  16% of maximal function calls                    13.0993887114
 POWELL| Reached  18% of maximal function calls                    13.0993887114
 POWELL| Reached  20% of maximal function calls                    13.0993887114
 POWELL| Reached  22% of maximal function calls                    13.0993887114
 POWELL| Reached  24% of maximal function calls                    13.0682496676
 POWELL| Reached  26% of maximal function calls                    13.0682496676
 POWELL| Reached  28% of maximal function calls                    13.0682496676
 POWELL| Reached  30% of maximal function calls                    13.0682496676
 POWELL| Reached  32% of maximal function calls                    13.0682496676
 POWELL| Reached  34% of maximal function calls                    13.0682496676
 POWELL| Reached  36% of maximal function calls                    13.0682496676
 POWELL| Reached  38% of maximal function calls                    13.0682496676
 POWELL| Reached  40% of maximal function calls                    13.0682496676
 POWELL| Reached  42% of maximal function calls                    13.0682496676
 POWELL| Reached  44% of maximal function calls                    13.0682496676
 POWELL| Reached  46% of maximal function calls                    13.0682496676
 POWELL| Reached  48% of maximal function calls                    13.0682496676
 POWELL| Reached  50% of maximal function calls                    13.0682496676
 POWELL| Reached  52% of maximal function calls                    13.0682496676
 POWELL| Reached  54% of maximal function calls                    13.0682496676
 POWELL| Reached  56% of maximal function calls                    13.0682496676
 POWELL| Reached  57% of maximal function calls                    13.0682496676
 POWELL| Reached  60% of maximal function calls                    13.0682496676
 POWELL| Reached  62% of maximal function calls                    13.0660780501
 POWELL| Reached  64% of maximal function calls                    13.0660780501
 POWELL| Reached  66% of maximal function calls                    13.0654398109
 POWELL| Reached  68% of maximal function calls                    13.0652222590
 POWELL| Reached  70% of maximal function calls                    13.0650543147
 POWELL| Reached  72% of maximal function calls                    13.0649521395
 POWELL| Reached  74% of maximal function calls                    13.0649521395
 POWELL| Reached  76% of maximal function calls                    13.0649521395
 POWELL| Reached  78% of maximal function calls                    13.0649521395
 POWELL| Reached  80% of maximal function calls                    13.0649203958
 POWELL| Reached  82% of maximal function calls                    13.0648822255
 POWELL| Reached  84% of maximal function calls                    13.0648822255
 POWELL| Reached  86% of maximal function calls                    13.0648822255
 POWELL| Reached  88% of maximal function calls                    13.0648740962
 POWELL| Reached  90% of maximal function calls                    13.0648740962
 POWELL| Reached  92% of maximal function calls                    13.0648731873
 POWELL| Reached  94% of maximal function calls                    13.0648731873
 POWELL| Reached  96% of maximal function calls                    13.0648731873
 POWELL| Reached  98% of maximal function calls                    13.0648731873
 POWELL| Reached 100% of maximal function calls                    13.0648731873
 POWELL| Reached 100% of maximal function calls                    13.0648731873
 POWELL| Exceeding maximum number of steps
 POWELL| Reached 100% of maximal function calls                    13.0648731873
 POWELL| RMS average of variables                                   0.0001100859
 POWELL| Start optimization   3 of total 100               rhobeg =   0.00038416
 POWELL| Inital value of function                                  13.0648731873
 POWELL| Reached   6% of maximal function calls                    13.0648731873
 POWELL| Reached   8% of maximal function calls                    13.0648731873
 POWELL| Reached  10% of maximal function calls                    13.0648731873
 POWELL| Reached  12% of maximal function calls                    13.0648731873
 POWELL| Reached  14% of maximal function calls                    13.0648731873
 POWELL| Reached  16% of maximal function calls                    13.0648731873
 POWELL| Reached  18% of maximal function calls                    13.0648731873
 POWELL| Reached  20% of maximal function calls                    13.0648731873
 POWELL| Reached  22% of maximal function calls                    13.0648731873
 POWELL| Reached  24% of maximal function calls                    13.0648731873
 POWELL| Reached  26% of maximal function calls                    13.0648731873
 POWELL| Reached  28% of maximal function calls                    13.0648731873
 POWELL| Reached  30% of maximal function calls                    13.0648731873
 POWELL| Reached  32% of maximal function calls                    13.0648731873
 POWELL| Reached  34% of maximal function calls                    13.0648731873
 POWELL| Reached  36% of maximal function calls                    13.0648731873
 POWELL| Reached  38% of maximal function calls                    13.0648731873
 POWELL| Reached  40% of maximal function calls                    13.0648731873
 POWELL| Reached  42% of maximal function calls                    13.0648731873
 POWELL| Reached  44% of maximal function calls                    13.0648731873
 POWELL| Reached  46% of maximal function calls                    13.0648731873
 POWELL| Reached  48% of maximal function calls                    13.0648731873
 POWELL| Reached  50% of maximal function calls                    13.0648731873
 POWELL| Reached  52% of maximal function calls                    13.0648731873
 POWELL| Reached  54% of maximal function calls                    13.0648731873
 POWELL| Reached  56% of maximal function calls                    13.0648731873
 POWELL| Reached  57% of maximal function calls                    13.0648731873
 POWELL| Reached  60% of maximal function calls                    13.0632965039
 POWELL| Reached  62% of maximal function calls                    13.0632965039
 POWELL| Reached  64% of maximal function calls                    13.0628948237
 POWELL| Reached  66% of maximal function calls                    13.0625404598
 POWELL| Reached  68% of maximal function calls                    13.0625404598
 POWELL| Reached  70% of maximal function calls                    13.0623653573
 POWELL| Reached  72% of maximal function calls                    13.0621897359
 POWELL| Reached  74% of maximal function calls                    13.0621897359
 POWELL| Reached  76% of maximal function calls                    13.0621897359
 POWELL| Reached  78% of maximal function calls                    13.0621897359
 POWELL| Reached  80% of maximal function calls                    13.0621576215
 POWELL| Reached  82% of maximal function calls                    13.0621206397
 POWELL| Reached  84% of maximal function calls                    13.0620018207
 POWELL| Reached  86% of maximal function calls                    13.0620018207
 POWELL| Reached  88% of maximal function calls                    13.0620018207
 POWELL| Reached  90% of maximal function calls                    13.0619935243
 POWELL| Reached  92% of maximal function calls                    13.0619935243
 POWELL| Reached  94% of maximal function calls                    13.0619935243
 POWELL| Reached  96% of maximal function calls                    13.0619935243
 POWELL| Reached  98% of maximal function calls                    13.0617883439
 POWELL| Reached 100% of maximal function calls                    13.0617883439
 POWELL| Reached 100% of maximal function calls                    13.0617868093
 POWELL| Exceeding maximum number of steps
 POWELL| Reached 100% of maximal function calls                    13.0617868093
 POWELL| RMS average of variables                                   0.0000110173
 POWELL| Start optimization   4 of total 100               rhobeg =   0.00037648
 POWELL| Inital value of function                                  13.0617868093
 POWELL| Reached   6% of maximal function calls                    13.0617868093
 POWELL| Reached   8% of maximal function calls                    13.0617868093
 POWELL| Reached  10% of maximal function calls                    13.0617868093
 POWELL| Reached  12% of maximal function calls                    13.0617868093
 POWELL| Reached  14% of maximal function calls                    13.0617868093
 POWELL| Reached  16% of maximal function calls                    13.0617868093
 POWELL| Reached  18% of maximal function calls                    13.0617868093
 POWELL| Reached  20% of maximal function calls                    13.0617868093
 POWELL| Reached  22% of maximal function calls                    13.0617868093
 POWELL| Reached  24% of maximal function calls                    13.0617868093
 POWELL| Reached  26% of maximal function calls                    13.0617868093
 POWELL| Reached  28% of maximal function calls                    13.0617868093
 POWELL| Reached  30% of maximal function calls                    13.0617868093
 POWELL| Reached  32% of maximal function calls                    13.0617868093
 POWELL| Reached  34% of maximal function calls                    13.0617868093
 POWELL| Reached  36% of maximal function calls                    13.0617868093
 POWELL| Reached  38% of maximal function calls                    13.0617868093
 POWELL| Reached  40% of maximal function calls                    13.0617868093
 POWELL| Reached  42% of maximal function calls                    13.0617868093
 POWELL| Reached  44% of maximal function calls                    13.0617868093
 POWELL| Reached  46% of maximal function calls                    13.0617868093
 POWELL| Reached  48% of maximal function calls                    13.0617868093
 POWELL| Reached  50% of maximal function calls                    13.0617868093
 POWELL| Reached  52% of maximal function calls                    13.0617868093
 POWELL| Reached  54% of maximal function calls                    13.0617868093
 POWELL| Reached  56% of maximal function calls                    13.0617868093
 POWELL| Reached  57% of maximal function calls                    13.0617868093
 POWELL| Reached  60% of maximal function calls                    13.0617868093
 POWELL| Reached  62% of maximal function calls                    13.0615462003
 POWELL| Reached  64% of maximal function calls                    13.0615462003
 POWELL| Reached  66% of maximal function calls                    13.0615462003
 POWELL| Reached  68% of maximal function calls                    13.0615462003
 POWELL| Reached  70% of maximal function calls                    13.0615462003
 POWELL| Reached  72% of maximal function calls                    13.0615462003
 POWELL| Reached  74% of maximal function calls                    13.0615462003
 POWELL| Reached  76% of maximal function calls                    13.0615462003
 POWELL| Reached  78% of maximal function calls                    13.0613836279
 POWELL| Reached  80% of maximal function calls                    13.0613836279
 POWELL| Reached  82% of maximal function calls                    13.0613761182
 POWELL| Reached  84% of maximal function calls                    13.0613761182
 POWELL| Reached  86% of maximal function calls                    13.0613721260
 POWELL| Reached  88% of maximal function calls                    13.0613721260
 POWELL| Reached  90% of maximal function calls                    13.0613347564
 POWELL| Reached  92% of maximal function calls                    13.0613347564
 POWELL| Reached  94% of maximal function calls                    13.0613347564
 POWELL| Reached  96% of maximal function calls                    13.0613347564
 POWELL| Reached  98% of maximal function calls                    13.0613347564
 POWELL| Reached 100% of maximal function calls                    13.0613137715
 POWELL| Reached 100% of maximal function calls                    13.0613081697
 POWELL| Exceeding maximum number of steps
 POWELL| Reached 100% of maximal function calls                    13.0613081697
 POWELL| RMS average of variables                                   0.0000104555
 POWELL| Start optimization   5 of total 100               rhobeg =   0.00036895
 POWELL| Inital value of function                                  13.0613081697
 POWELL| Reached   6% of maximal function calls                    13.0613081697
 POWELL| Reached   8% of maximal function calls                    13.0613081697
 POWELL| Reached  10% of maximal function calls                    13.0613081697
 POWELL| Reached  12% of maximal function calls                    13.0613081697
 POWELL| Reached  14% of maximal function calls                    13.0453172260
 POWELL| Reached  16% of maximal function calls                    13.0453172260
 POWELL| Reached  18% of maximal function calls                    13.0453172260
 POWELL| Reached  20% of maximal function calls                    13.0453172260
 POWELL| Reached  22% of maximal function calls                    13.0453172260
 POWELL| Reached  24% of maximal function calls                    13.0453172260
 POWELL| Reached  26% of maximal function calls                    13.0453172260
 POWELL| Reached  28% of maximal function calls                    13.0453172260
 POWELL| Reached  30% of maximal function calls                    13.0453172260
 POWELL| Reached  32% of maximal function calls                    13.0453172260
 POWELL| Reached  34% of maximal function calls                    13.0453172260
 POWELL| Reached  36% of maximal function calls                    13.0453172260
 POWELL| Reached  38% of maximal function calls                    13.0453172260
 POWELL| Reached  40% of maximal function calls                    13.0453172260
 POWELL| Reached  42% of maximal function calls                    13.0453172260
 POWELL| Reached  44% of maximal function calls                    13.0453172260
 POWELL| Reached  46% of maximal function calls                    13.0453172260
 POWELL| Reached  48% of maximal function calls                    13.0453172260
 POWELL| Reached  50% of maximal function calls                    13.0453172260
 POWELL| Reached  52% of maximal function calls                    13.0453172260
 POWELL| Reached  54% of maximal function calls                    13.0453172260
 POWELL| Reached  56% of maximal function calls                    13.0453172260
 POWELL| Reached  57% of maximal function calls                    13.0453172260
 POWELL| Reached  60% of maximal function calls                    13.0166713917
 POWELL| Reached  62% of maximal function calls                    13.0166713917
 POWELL| Reached  64% of maximal function calls                    13.0166713917
 POWELL| Reached  66% of maximal function calls                    13.0166713917
 POWELL| Reached  68% of maximal function calls                    13.0166713917
 POWELL| Reached  70% of maximal function calls                    13.0130723869
 POWELL| Reached  72% of maximal function calls                    13.0106603089
 POWELL| Reached  74% of maximal function calls                    13.0106423541
 POWELL| Reached  76% of maximal function calls                    13.0106378468
 POWELL| Reached  78% of maximal function calls                    13.0105777273
 POWELL| Reached  80% of maximal function calls                    13.0105777273
 POWELL| Reached  82% of maximal function calls                    13.0105263854
 POWELL| Reached  84% of maximal function calls                    13.0105263854
 POWELL| Reached  86% of maximal function calls                    13.0105263854
 POWELL| Reached  88% of maximal function calls                    13.0105263854
 POWELL| Reached  90% of maximal function calls                    13.0105263854
 POWELL| Reached  92% of maximal function calls                    13.0105263854
 POWELL| Reached  94% of maximal function calls                    13.0105263854
 POWELL| Reached  96% of maximal function calls                    13.0105088402
 POWELL| Reached  98% of maximal function calls                    13.0105088127
 POWELL| Reached 100% of maximal function calls                    13.0105052042
 POWELL| Reached 100% of maximal function calls                    13.0105048390
 POWELL| Exceeding maximum number of steps
 POWELL| Reached 100% of maximal function calls                    13.0105048390
 POWELL| RMS average of variables                                   0.0001028886
 POWELL| Start optimization   6 of total 100               rhobeg =   0.00036157
 POWELL| Inital value of function                                  13.0105048390
 POWELL| Reached   6% of maximal function calls                    13.0105048390
 POWELL| Reached   8% of maximal function calls                    13.0105048390
 POWELL| Reached  10% of maximal function calls                    13.0105048390
 POWELL| Reached  12% of maximal function calls                    13.0105048390
 POWELL| Reached  14% of maximal function calls                    13.0105048390
 POWELL| Reached  16% of maximal function calls                    13.0105048390
 POWELL| Reached  18% of maximal function calls                    13.0105048390
 POWELL| Reached  20% of maximal function calls                    13.0105048390
 POWELL| Reached  22% of maximal function calls                    13.0105048390
 POWELL| Reached  24% of maximal function calls                    13.0105048390
 POWELL| Reached  26% of maximal function calls                    13.0105048390
 POWELL| Reached  28% of maximal function calls                    13.0105048390
 POWELL| Reached  30% of maximal function calls                    13.0105048390
 POWELL| Reached  32% of maximal function calls                    13.0105048390
 POWELL| Reached  34% of maximal function calls                    13.0091671421
 POWELL| Reached  36% of maximal function calls                    13.0091671421
 POWELL| Reached  38% of maximal function calls                    13.0091671421
 POWELL| Reached  40% of maximal function calls                    13.0091671421
 POWELL| Reached  42% of maximal function calls                    13.0091671421
 POWELL| Reached  44% of maximal function calls                    13.0091671421
 POWELL| Reached  46% of maximal function calls                    13.0091671421
 POWELL| Reached  48% of maximal function calls                    13.0091671421
 POWELL| Reached  50% of maximal function calls                    13.0091671421
 POWELL| Reached  52% of maximal function calls                    13.0091671421
 POWELL| Reached  54% of maximal function calls                    13.0091671421
 POWELL| Reached  56% of maximal function calls                    13.0091671421
 POWELL| Reached  57% of maximal function calls                    13.0091671421
 POWELL| Reached  60% of maximal function calls                    13.0091671421
 POWELL| Reached  62% of maximal function calls                    13.0029430490
 POWELL| Reached  64% of maximal function calls                    13.0027675863
 POWELL| Reached  66% of maximal function calls                    13.0027675863
 POWELL| Reached  68% of maximal function calls                    13.0027675863
 POWELL| Reached  70% of maximal function calls                    13.0018762254
 POWELL| Reached  72% of maximal function calls                    13.0014534544
 POWELL| Reached  74% of maximal function calls                    13.0005237578
 POWELL| Reached  76% of maximal function calls                    13.0005225679
 POWELL| Reached  78% of maximal function calls                    13.0005225679
 POWELL| Reached  80% of maximal function calls                    13.0004939846
 POWELL| Reached  82% of maximal function calls                    13.0004637937
 POWELL| Reached  84% of maximal function calls                    13.0004637937
 POWELL| Reached  86% of maximal function calls                    13.0004637937
 POWELL| Reached  88% of maximal function calls                    13.0004547137
 POWELL| Reached  90% of maximal function calls                    13.0004547137
 POWELL| Reached  92% of maximal function calls                    13.0004547137
 POWELL| Reached  94% of maximal function calls                    13.0004547137
 POWELL| Reached  96% of maximal function calls                    13.0004511490
 POWELL| Reached  98% of maximal function calls                    13.0004506002
 POWELL| Reached 100% of maximal function calls                    13.0004506002
 POWELL| Reached 100% of maximal function calls                    13.0004506002
 POWELL| Exceeding maximum number of steps
 POWELL| Reached 100% of maximal function calls                    13.0004506002
 POWELL| RMS average of variables                                   0.0001017205
 POWELL| Start optimization   7 of total 100               rhobeg =   0.00035434
 POWELL| Inital value of function                                  13.0004506002
 POWELL| Reached   6% of maximal function calls                    13.0004506002
 POWELL| Reached   8% of maximal function calls                    13.0004506002
 POWELL| Reached  10% of maximal function calls                    13.0004506002
 POWELL| Reached  12% of maximal function calls                    13.0004506002
 POWELL| Reached  14% of maximal function calls                    13.0004506002
 POWELL| Reached  16% of maximal function calls                    13.0004506002
 POWELL| Reached  18% of maximal function calls                    13.0004506002
 POWELL| Reached  20% of maximal function calls                    13.0004506002
 POWELL| Reached  22% of maximal function calls                    13.0004506002
 POWELL| Reached  24% of maximal function calls                    13.0004506002
 POWELL| Reached  26% of maximal function calls                    13.0004506002
 POWELL| Reached  28% of maximal function calls                    13.0004506002
 POWELL| Reached  30% of maximal function calls                    13.0004506002
 POWELL| Reached  32% of maximal function calls                    13.0004506002
 POWELL| Reached  34% of maximal function calls                    13.0004506002
 POWELL| Reached  36% of maximal function calls                    13.0004506002
 POWELL| Reached  38% of maximal function calls                    13.0004506002
 POWELL| Reached  40% of maximal function calls                    13.0004506002
 POWELL| Reached  42% of maximal function calls                    13.0004506002
 POWELL| Reached  44% of maximal function calls                    13.0004506002
 POWELL| Reached  46% of maximal function calls                    13.0004506002
 POWELL| Reached  48% of maximal function calls                    13.0004506002
 POWELL| Reached  50% of maximal function calls                    13.0004506002
 POWELL| Reached  52% of maximal function calls                    13.0004506002
 POWELL| Reached  54% of maximal function calls                    13.0004506002
 POWELL| Reached  56% of maximal function calls                    13.0004506002
 POWELL| Reached  57% of maximal function calls                    13.0004506002
 POWELL| Reached  60% of maximal function calls                    12.9999236092
 POWELL| Reached  62% of maximal function calls                    12.9997181108
 POWELL| Reached  64% of maximal function calls                    12.9994627518
 POWELL| Reached  66% of maximal function calls                    12.9992692064
 POWELL| Reached  68% of maximal function calls                    12.9992692064
 POWELL| Reached  70% of maximal function calls                    12.9992668267
 POWELL| Reached  72% of maximal function calls                    12.9992647623
 POWELL| Reached  74% of maximal function calls                    12.9980774975
 POWELL| Reached  76% of maximal function calls                    12.9979840045
 POWELL| Reached  78% of maximal function calls                    12.9979840045
 POWELL| Reached  80% of maximal function calls                    12.9979551829
 POWELL| Reached  82% of maximal function calls                    12.9979261376
 POWELL| Reached  84% of maximal function calls                    12.9979261376
 POWELL| Reached  86% of maximal function calls                    12.9978923713
 POWELL| Reached  88% of maximal function calls                    12.9978880079
 POWELL| Reached  90% of maximal function calls                    12.9978880079
 POWELL| Reached  92% of maximal function calls                    12.9978759524
 POWELL| Reached  94% of maximal function calls                    12.9978739665
 POWELL| Reached  96% of maximal function calls                    12.9978739665
 POWELL| Reached  98% of maximal function calls                    12.9978739665
 POWELL| Reached 100% of maximal function calls                    12.9978739665
 POWELL| Reached 100% of maximal function calls                    12.9978677470
 POWELL| Exceeding maximum number of steps
 POWELL| Reached 100% of maximal function calls                    12.9978677470
 POWELL| RMS average of variables                                   0.0000200091
 POWELL| Start optimization   8 of total 100               rhobeg =   0.00034725
 POWELL| Inital value of function                                  12.9978677470
 POWELL| Reached   6% of maximal function calls                    12.9978677470
 POWELL| Reached   8% of maximal function calls                    12.9978677470
 POWELL| Reached  10% of maximal function calls                    12.9978677470
 POWELL| Reached  12% of maximal function calls                    12.9978677470
 POWELL| Reached  14% of maximal function calls                    12.9978677470
 POWELL| Reached  16% of maximal function calls                    12.9978677470
 POWELL| Reached  18% of maximal function calls                    12.9978677470
 POWELL| Reached  20% of maximal function calls                    12.9978677470
 POWELL| Reached  22% of maximal function calls                    12.9978677470
 POWELL| Reached  24% of maximal function calls                    12.9978677470
 POWELL| Reached  26% of maximal function calls                    12.9978677470
 POWELL| Reached  28% of maximal function calls                    12.9978677470
 POWELL| Reached  30% of maximal function calls                    12.9978677470
 POWELL| Reached  32% of maximal function calls                    12.9978677470
 POWELL| Reached  34% of maximal function calls                    12.9978677470
 POWELL| Reached  36% of maximal function calls                    12.9978677470
 POWELL| Reached  38% of maximal function calls                    12.9978677470
 POWELL| Reached  40% of maximal function calls                    12.9978677470
 POWELL| Reached  42% of maximal function calls                    12.9978677470
 POWELL| Reached  44% of maximal function calls                    12.9978677470
 POWELL| Reached  46% of maximal function calls                    12.9978677470
 POWELL| Reached  48% of maximal function calls                    12.9978677470
 POWELL| Reached  50% of maximal function calls                    12.9978677470
 POWELL| Reached  52% of maximal function calls                    12.9978677470
 POWELL| Reached  54% of maximal function calls                    12.9978677470
 POWELL| Reached  56% of maximal function calls                    12.9978677470
 POWELL| Reached  57% of maximal function calls                    12.9978677470
 POWELL| Reached  60% of maximal function calls                    12.9978636823
 POWELL| Reached  62% of maximal function calls                    12.9978636823
 POWELL| Reached  64% of maximal function calls                    12.9976935244
 POWELL| Reached  66% of maximal function calls                    12.9975782650
 POWELL| Reached  68% of maximal function calls                    12.9975782650
 POWELL| Reached  70% of maximal function calls                    12.9975715006
 POWELL| Reached  72% of maximal function calls                    12.9975652375
 POWELL| Reached  74% of maximal function calls                    12.9962512259
 POWELL| Reached  76% of maximal function calls                    12.9961401874
 POWELL| Reached  78% of maximal function calls                    12.9961401874
 POWELL| Reached  80% of maximal function calls                    12.9961117334
 POWELL| Reached  82% of maximal function calls                    12.9960840007
 POWELL| Reached  84% of maximal function calls                    12.9960840007
 POWELL| Reached  86% of maximal function calls                    12.9960630926
 POWELL| Reached  88% of maximal function calls                    12.9960630926
 POWELL| Reached  90% of maximal function calls                    12.9960630926
 POWELL| Reached  92% of maximal function calls                    12.9960630926
 POWELL| Reached  94% of maximal function calls                    12.9960630926
 POWELL| Reached  96% of maximal function calls                    12.9960602818
 POWELL| Reached  98% of maximal function calls                    12.9960527962
 POWELL| Reached 100% of maximal function calls                    12.9959711408
 POWELL| Reached 100% of maximal function calls                    12.9959711408
 POWELL| Exceeding maximum number of steps
 POWELL| Reached 100% of maximal function calls                    12.9959711408
 POWELL| RMS average of variables                                   0.0000099507
 POWELL| Start optimization   9 of total 100               rhobeg =   0.00034031
 POWELL| Inital value of function                                  12.9959711408
 POWELL| Reached   6% of maximal function calls                    12.9959711408
 POWELL| Reached   8% of maximal function calls                    12.9959711408
 POWELL| Reached  10% of maximal function calls                    12.9959711408
 POWELL| Reached  12% of maximal function calls                    12.9959711408
 POWELL| Reached  14% of maximal function calls                    12.9959711408
 POWELL| Reached  16% of maximal function calls                    12.9959711408
 POWELL| Reached  18% of maximal function calls                    12.9959711408
 POWELL| Reached  20% of maximal function calls                    12.9959711408
 POWELL| Reached  22% of maximal function calls                    12.9959711408
 POWELL| Reached  24% of maximal function calls                    12.9959711408
 POWELL| Reached  26% of maximal function calls                    12.9959711408
 POWELL| Reached  28% of maximal function calls                    12.9959711408
 POWELL| Reached  30% of maximal function calls                    12.9959711408
 POWELL| Reached  32% of maximal function calls                    12.9959711408
 POWELL| Reached  34% of maximal function calls                    12.9959711408
 POWELL| Reached  36% of maximal function calls                    12.9959711408
 POWELL| Reached  38% of maximal function calls                    12.9959711408
 POWELL| Reached  40% of maximal function calls                    12.9959711408
 POWELL| Reached  42% of maximal function calls                    12.9959711408
 POWELL| Reached  44% of maximal function calls                    12.9959711408
 POWELL| Reached  46% of maximal function calls                    12.9959711408
 POWELL| Reached  48% of maximal function calls                    12.9959711408
 POWELL| Reached  50% of maximal function calls                    12.9959711408
 POWELL| Reached  52% of maximal function calls                    12.9959711408
 POWELL| Reached  54% of maximal function calls                    12.9959711408
 POWELL| Reached  56% of maximal function calls                    12.9959711408
 POWELL| Reached  57% of maximal function calls                    12.9959711408
 POWELL| Reached  60% of maximal function calls                    12.9959711408
 POWELL| Reached  62% of maximal function calls                    12.9959711408
 POWELL| Reached  64% of maximal function calls                    12.9959711408
 POWELL| Reached  66% of maximal function calls                    12.9959544017
 POWELL| Reached  68% of maximal function calls                    12.9959544017
 POWELL| Reached  70% of maximal function calls                    12.9950560816
 POWELL| Reached  72% of maximal function calls                    12.9944805664
 POWELL| Reached  74% of maximal function calls                    12.9944805664
 POWELL| Reached  76% of maximal function calls                    12.9944539295
 POWELL| Reached  78% of maximal function calls                    12.9944539295
 POWELL| Reached  80% of maximal function calls                    12.9944539295
 POWELL| Reached  82% of maximal function calls                    12.9944539295
 POWELL| Reached  84% of maximal function calls                    12.9944469299
 POWELL| Reached  86% of maximal function calls                    12.9944040068
 POWELL| Reached  88% of maximal function calls                    12.9943964360
 POWELL| Reached  90% of maximal function calls                    12.9943964360
 POWELL| Reached  92% of maximal function calls                    12.9943943820
 POWELL| Reached  94% of maximal function calls                    12.9943943820
 POWELL| Reached  96% of maximal function calls                    12.9943931502
 POWELL| Reached  98% of maximal function calls                    12.9943931502
 POWELL| Reached 100% of maximal function calls                    12.9943931502
 POWELL| Reached 100% of maximal function calls                    12.9943931502
 POWELL| Exceeding maximum number of steps
 POWELL| Reached 100% of maximal function calls                    12.9943931502
 POWELL| RMS average of variables                                   0.0000009587
 POWELL| Start optimization  10 of total 100               rhobeg =   0.00033350
 POWELL| Inital value of function                                  12.9943931502
 POWELL| Reached   6% of maximal function calls                    12.9943931502
 POWELL| Reached   8% of maximal function calls                    12.9943931502
 POWELL| Reached  10% of maximal function calls                    12.9943931502
 POWELL| Reached  12% of maximal function calls                    12.9943931502
 POWELL| Reached  14% of maximal function calls                    12.9943931502
 POWELL| Reached  16% of maximal function calls                    12.9943931502
 POWELL| Reached  18% of maximal function calls                    12.9943931502
 POWELL| Reached  20% of maximal function calls                    12.9943931502
 POWELL| Reached  22% of maximal function calls                    12.9943931502
 POWELL| Reached  24% of maximal function calls                    12.9943931502
 POWELL| Reached  26% of maximal function calls                    12.9943931502
 POWELL| Reached  28% of maximal function calls                    12.9943931502
 POWELL| Reached  30% of maximal function calls                    12.9943931502
 POWELL| Reached  32% of maximal function calls                    12.9943931502
 POWELL| Reached  34% of maximal function calls                    12.9943931502
 POWELL| Reached  36% of maximal function calls                    12.9943931502
 POWELL| Reached  38% of maximal function calls                    12.9943931502
 POWELL| Reached  40% of maximal function calls                    12.9943931502
 POWELL| Reached  42% of maximal function calls                    12.9943931502
 POWELL| Reached  44% of maximal function calls                    12.9943931502
 POWELL| Reached  46% of maximal function calls                    12.9943931502
 POWELL| Reached  48% of maximal function calls                    12.9943931502
 POWELL| Reached  50% of maximal function calls                    12.9943931502
 POWELL| Reached  52% of maximal function calls                    12.9943931502
 POWELL| Reached  54% of maximal function calls                    12.9943931502
 POWELL| Reached  56% of maximal function calls                    12.9943931502
 POWELL| Reached  57% of maximal function calls                    12.9943931502
 POWELL| Reached  60% of maximal function calls                    12.9939688744
 POWELL| Reached  62% of maximal function calls                    12.9938294553
 POWELL| Reached  64% of maximal function calls                    12.9936162550
 POWELL| Reached  66% of maximal function calls                    12.9934584735
 POWELL| Reached  68% of maximal function calls                    12.9934584735
 POWELL| Reached  70% of maximal function calls                    12.9934518102
 POWELL| Reached  72% of maximal function calls                    12.9934456561
 POWELL| Reached  74% of maximal function calls                    12.9924078177
 POWELL| Reached  76% of maximal function calls                    12.9923263121
 POWELL| Reached  78% of maximal function calls                    12.9923263121
 POWELL| Reached  80% of maximal function calls                    12.9922994776
 POWELL| Reached  82% of maximal function calls                    12.9922744149
 POWELL| Reached  84% of maximal function calls                    12.9922744149
 POWELL| Reached  86% of maximal function calls                    12.9922450750
 POWELL| Reached  88% of maximal function calls                    12.9922422573
 POWELL| Reached  90% of maximal function calls                    12.9922422573
 POWELL| Reached  92% of maximal function calls                    12.9922355286
 POWELL| Reached  94% of maximal function calls                    12.9922299386
 POWELL| Reached  96% of maximal function calls                    12.9922208739
 POWELL| Reached  98% of maximal function calls                    12.9922208739
 POWELL| Reached 100% of maximal function calls                    12.9921390356
 POWELL| Reached 100% of maximal function calls                    12.9921359374
 POWELL| Exceeding maximum number of steps
 POWELL| Reached 100% of maximal function calls                    12.9921359374
 POWELL| RMS average of variables                                   0.0000188355
 POWELL| Start optimization  11 of total 100               rhobeg =   0.00032683
 POWELL| Inital value of function                                  12.9921359374
 POWELL| Reached   6% of maximal function calls                    12.9921359374
 POWELL| Reached   8% of maximal function calls                    12.9921359374
 POWELL| Reached  10% of maximal function calls                    12.9921359374
 POWELL| Reached  12% of maximal function calls                    12.9921359374
 POWELL| Reached  14% of maximal function calls                    12.9921359374
 POWELL| Reached  16% of maximal function calls                    12.9921359374
 POWELL| Reached  18% of maximal function calls                    12.9921359374
 POWELL| Reached  20% of maximal function calls                    12.9921359374
 POWELL| Reached  22% of maximal function calls                    12.9921359374
 POWELL| Reached  24% of maximal function calls                    12.9921359374
 POWELL| Reached  26% of maximal function calls                    12.9921359374
 POWELL| Reached  28% of maximal function calls                    12.9921359374
 POWELL| Reached  30% of maximal function calls                    12.9921359374
 POWELL| Reached  32% of maximal function calls                    12.9921359374
 POWELL| Reached  34% of maximal function calls                    12.9921359374
 POWELL| Reached  36% of maximal function calls                    12.9921359374
 POWELL| Reached  38% of maximal function calls                    12.9921359374
 POWELL| Reached  40% of maximal function calls                    12.9921359374
 POWELL| Reached  42% of maximal function calls                    12.9921359374
 POWELL| Reached  44% of maximal function calls                    12.9921359374
 POWELL| Reached  46% of maximal function calls                    12.9921359374
 POWELL| Reached  48% of maximal function calls                    12.9921359374
 POWELL| Reached  50% of maximal function calls                    12.9921359374
 POWELL| Reached  52% of maximal function calls                    12.9921359374
 POWELL| Reached  54% of maximal function calls                    12.9921359374
 POWELL| Reached  56% of maximal function calls                    12.9921359374
 POWELL| Reached  57% of maximal function calls                    12.9921359374
 POWELL| Reached  60% of maximal function calls                    12.9921359374
 POWELL| Reached  62% of maximal function calls                    12.9916690199
 POWELL| Reached  64% of maximal function calls                    12.9916690199
 POWELL| Reached  66% of maximal function calls                    12.9916690199
 POWELL| Reached  68% of maximal function calls                    12.9914682109
 POWELL| Reached  70% of maximal function calls                    12.9914520606
 POWELL| Reached  72% of maximal function calls                    12.9897466954
 POWELL| Reached  74% of maximal function calls                    12.9883490122
 POWELL| Reached  76% of maximal function calls                    12.9883490122
 POWELL| Reached  78% of maximal function calls                    12.9883221160
 POWELL| Reached  80% of maximal function calls                    12.9883221160
 POWELL| Reached  82% of maximal function calls                    12.9883221160
 POWELL| Reached  84% of maximal function calls                    12.9883221160
 POWELL| Reached  86% of maximal function calls                    12.9883134085
 POWELL| Reached  88% of maximal function calls                    12.9883100447
 POWELL| Reached  90% of maximal function calls                    12.9883007053
 POWELL| Reached  92% of maximal function calls                    12.9883007053
 POWELL| Reached  94% of maximal function calls                    12.9883007053
 POWELL| Reached  96% of maximal function calls                    12.9883007053
 POWELL| Reached  98% of maximal function calls                    12.9883007053
 POWELL| Reached 100% of maximal function calls                    12.9883007053
 POWELL| Reached 100% of maximal function calls                    12.9883005697
 POWELL| Exceeding maximum number of steps
 POWELL| Reached 100% of maximal function calls                    12.9883005697
 POWELL| RMS average of variables                                   0.0000091510
 POWELL| Start optimization  12 of total 100               rhobeg =   0.00032029
 POWELL| Inital value of function                                  12.9883005697
 POWELL| Reached   6% of maximal function calls                    12.9883005697
 POWELL| Reached   8% of maximal function calls                    12.9883005697
 POWELL| Reached  10% of maximal function calls                    12.9883005697
 POWELL| Reached  12% of maximal function calls                    12.9883005697
 POWELL| Reached  14% of maximal function calls                    12.9883005697
 POWELL| Reached  16% of maximal function calls                    12.9883005697
 POWELL| Reached  18% of maximal function calls                    12.9883005697
 POWELL| Reached  20% of maximal function calls                    12.9883005697
 POWELL| Reached  22% of maximal function calls                    12.9883005697
 POWELL| Reached  24% of maximal function calls                    12.9883005697
 POWELL| Reached  26% of maximal function calls                    12.9883005697
 POWELL| Reached  28% of maximal function calls                    12.9883005697
 POWELL| Reached  30% of maximal function calls                    12.9883005697
 POWELL| Reached  32% of maximal function calls                    12.9883005697
 POWELL| Reached  34% of maximal function calls                    12.9883005697
 POWELL| Reached  36% of maximal function calls                    12.9883005697
 POWELL| Reached  38% of maximal function calls                    12.9883005697
 POWELL| Reached  40% of maximal function calls                    12.9883005697
 POWELL| Reached  42% of maximal function calls                    12.9883005697
 POWELL| Reached  44% of maximal function calls                    12.9883005697
 POWELL| Reached  46% of maximal function calls                    12.9883005697
 POWELL| Reached  48% of maximal function calls                    12.9883005697
 POWELL| Reached  50% of maximal function calls                    12.9883005697
 POWELL| Reached  52% of maximal function calls                    12.9883005697
 POWELL| Reached  54% of maximal function calls                    12.9883005697
 POWELL| Reached  56% of maximal function calls                    12.9883005697
 POWELL| Reached  57% of maximal function calls                    12.9883005697
 POWELL| Reached  60% of maximal function calls                    12.9883005697
 POWELL| Reached  62% of maximal function calls                    12.9883005697
 POWELL| Reached  64% of maximal function calls                    12.9883005697
 POWELL| Reached  66% of maximal function calls                    12.9881842522
 POWELL| Reached  68% of maximal function calls                    12.9880839166
 POWELL| Reached  70% of maximal function calls                    12.9870572532
 POWELL| Reached  72% of maximal function calls                    12.9863165328
 POWELL| Reached  74% of maximal function calls                    12.9863165328
 POWELL| Reached  76% of maximal function calls                    12.9862913811
 POWELL| Reached  78% of maximal function calls                    12.9862913811
 POWELL| Reached  80% of maximal function calls                    12.9862913811
 POWELL| Reached  82% of maximal function calls                    12.9862913811
 POWELL| Reached  84% of maximal function calls                    12.9862888047
 POWELL| Reached  86% of maximal function calls                    12.9862230129
 POWELL| Reached  88% of maximal function calls                    12.9862228066
 POWELL| Reached  90% of maximal function calls                    12.9862216787
 POWELL| Reached  92% of maximal function calls                    12.9862216787
 POWELL| Reached  94% of maximal function calls                    12.9862216787
 POWELL| Reached  96% of maximal function calls                    12.9862216787
 POWELL| Reached  98% of maximal function calls                    12.9862216787
 POWELL| Reached 100% of maximal function calls                    12.9862198385
 POWELL| Reached 100% of maximal function calls                    12.9862198385
 POWELL| Exceeding maximum number of steps
 POWELL| Reached 100% of maximal function calls                    12.9862198385
 POWELL| RMS average of variables                                   0.0000017873
 POWELL| Start optimization  13 of total 100               rhobeg =   0.00031389
 POWELL| Inital value of function                                  12.9862198385
 POWELL| Reached   6% of maximal function calls                    12.9862198385
 POWELL| Reached   8% of maximal function calls                    12.9862198385
 POWELL| Reached  10% of maximal function calls                    12.9862198385
 POWELL| Reached  12% of maximal function calls                    12.9862198385
 POWELL| Reached  14% of maximal function calls                    12.9862198385
 POWELL| Reached  16% of maximal function calls                    12.9862198385
 POWELL| Reached  18% of maximal function calls                    12.9862198385
 POWELL| Reached  20% of maximal function calls                    12.9862198385
 POWELL| Reached  22% of maximal function calls                    12.9862198385
 POWELL| Reached  24% of maximal function calls                    12.9862198385
 POWELL| Reached  26% of maximal function calls                    12.9862198385
 POWELL| Reached  28% of maximal function calls                    12.9862198385
 POWELL| Reached  30% of maximal function calls                    12.9862198385
 POWELL| Reached  32% of maximal function calls                    12.9862198385
 POWELL| Reached  34% of maximal function calls                    12.9862198385
 POWELL| Reached  36% of maximal function calls                    12.9862198385
 POWELL| Reached  38% of maximal function calls                    12.9862198385
 POWELL| Reached  40% of maximal function calls                    12.9862198385
 POWELL| Reached  42% of maximal function calls                    12.9862198385
 POWELL| Reached  44% of maximal function calls                    12.9862198385
 POWELL| Reached  46% of maximal function calls                    12.9862198385
 POWELL| Reached  48% of maximal function calls                    12.9862198385
 POWELL| Reached  50% of maximal function calls                    12.9862198385
 POWELL| Reached  52% of maximal function calls                    12.9862198385
 POWELL| Reached  54% of maximal function calls                    12.9862198385
 POWELL| Reached  56% of maximal function calls                    12.9862198385
 POWELL| Reached  57% of maximal function calls                    12.9862198385
 POWELL| Reached  60% of maximal function calls                    12.9861492952
 POWELL| Reached  62% of maximal function calls                    12.9861492952
 POWELL| Reached  64% of maximal function calls                    12.9859794701
 POWELL| Reached  66% of maximal function calls                    12.9858538382
 POWELL| Reached  68% of maximal function calls                    12.9858538382
 POWELL| Reached  70% of maximal function calls                    12.9858434667
 POWELL| Reached  72% of maximal function calls                    12.9858334266
 POWELL| Reached  74% of maximal function calls                    12.9849380187
 POWELL| Reached  76% of maximal function calls                    12.9848647594
 POWELL| Reached  78% of maximal function calls                    12.9848647594
 POWELL| Reached  80% of maximal function calls                    12.9848398324
 POWELL| Reached  82% of maximal function calls                    12.9848398324
 POWELL| Reached  84% of maximal function calls                    12.9848398324
 POWELL| Reached  86% of maximal function calls                    12.9848398324
 POWELL| Reached  88% of maximal function calls                    12.9848334989
 POWELL| Reached  90% of maximal function calls                    12.9848328696
 POWELL| Reached  92% of maximal function calls                    12.9848328696
 POWELL| Reached  94% of maximal function calls                    12.9848328696
 POWELL| Reached  96% of maximal function calls                    12.9848328696
 POWELL| Reached  98% of maximal function calls                    12.9848328696
 POWELL| Reached 100% of maximal function calls                    12.9847542574
 POWELL| Reached 100% of maximal function calls                    12.9847542574
 POWELL| Exceeding maximum number of steps
 POWELL| Reached 100% of maximal function calls                    12.9847542574
 POWELL| RMS average of variables                                   0.0000090033
 POWELL| Start optimization  14 of total 100               rhobeg =   0.00030761
 POWELL| Inital value of function                                  12.9847542574
 POWELL| Reached   6% of maximal function calls                    12.9847542574
 POWELL| Reached   8% of maximal function calls                    12.9847542574
 POWELL| Reached  10% of maximal function calls                    12.9847542574
 POWELL| Reached  12% of maximal function calls                    12.9847542574
 POWELL| Reached  14% of maximal function calls                    12.9847542574
 POWELL| Reached  16% of maximal function calls                    12.9847542574
 POWELL| Reached  18% of maximal function calls                    12.9847542574
 POWELL| Reached  20% of maximal function calls                    12.9847542574
 POWELL| Reached  22% of maximal function calls                    12.9847542574
 POWELL| Reached  24% of maximal function calls                    12.9847542574
 POWELL| Reached  26% of maximal function calls                    12.9847542574
 POWELL| Reached  28% of maximal function calls                    12.9847542574
 POWELL| Reached  30% of maximal function calls                    12.9847542574
 POWELL| Reached  32% of maximal function calls                    12.9847542574
 POWELL| Reached  34% of maximal function calls                    12.9847542574
 POWELL| Reached  36% of maximal function calls                    12.9847542574
 POWELL| Reached  38% of maximal function calls                    12.9847542574
 POWELL| Reached  40% of maximal function calls                    12.9847542574
 POWELL| Reached  42% of maximal function calls                    12.9847542574
 POWELL| Reached  44% of maximal function calls                    12.9847542574
 POWELL| Reached  46% of maximal function calls                    12.9847542574
 POWELL| Reached  48% of maximal function calls                    12.9847542574
 POWELL| Reached  50% of maximal function calls                    12.9847542574
 POWELL| Reached  52% of maximal function calls                    12.9847542574
 POWELL| Reached  54% of maximal function calls                    12.9847542574
 POWELL| Reached  56% of maximal function calls                    12.9847542574
 POWELL| Reached  57% of maximal function calls                    12.9847542574
 POWELL| Reached  60% of maximal function calls                    12.9847542574
 POWELL| Reached  62% of maximal function calls                    12.9845278039
 POWELL| Reached  64% of maximal function calls                    12.9845278039
 POWELL| Reached  66% of maximal function calls                    12.9845278039
 POWELL| Reached  68% of maximal function calls                    12.9843070951
 POWELL| Reached  70% of maximal function calls                    12.9842888996
 POWELL| Reached  72% of maximal function calls                    12.9827990026
 POWELL| Reached  74% of maximal function calls                    12.9815817065
 POWELL| Reached  76% of maximal function calls                    12.9815817065
 POWELL| Reached  78% of maximal function calls                    12.9815567078
 POWELL| Reached  80% of maximal function calls                    12.9815360768
 POWELL| Reached  82% of maximal function calls                    12.9815360768
 POWELL| Reached  84% of maximal function calls                    12.9815157186
 POWELL| Reached  86% of maximal function calls                    12.9815157186
 POWELL| Reached  88% of maximal function calls                    12.9815157186
 POWELL| Reached  90% of maximal function calls                    12.9815157186
 POWELL| Reached  92% of maximal function calls                    12.9815157186
 POWELL| Reached  94% of maximal function calls                    12.9815157186
 POWELL| Reached  96% of maximal function calls                    12.9815157186
 POWELL| Reached  98% of maximal function calls                    12.9815131699
 POWELL| Reached 100% of maximal function calls                    12.9815131699
 POWELL| Reached 100% of maximal function calls                    12.9814409768
 POWELL| Exceeding maximum number of steps
 POWELL| Reached 100% of maximal function calls                    12.9814409768
 POWELL| RMS average of variables                                   0.0000086023
 POWELL| Start optimization  15 of total 100               rhobeg =   0.00030146
 POWELL| Inital value of function                                  12.9814409768
 POWELL| Reached   6% of maximal function calls                    12.9814409768
 POWELL| Reached   8% of maximal function calls                    12.9814409768
 POWELL| Reached  10% of maximal function calls                    12.9814409768
 POWELL| Reached  12% of maximal function calls                    12.9814409768
 POWELL| Reached  14% of maximal function calls                    12.9814409768
 POWELL| Reached  16% of maximal function calls                    12.9814409768
 POWELL| Reached  18% of maximal function calls                    12.9814409768
 POWELL| Reached  20% of maximal function calls                    12.9814409768
 POWELL| Reached  22% of maximal function calls                    12.9814409768
 POWELL| Reached  24% of maximal function calls                    12.9814409768
 POWELL| Reached  26% of maximal function calls                    12.9814409768
 POWELL| Reached  28% of maximal function calls                    12.9814409768
 POWELL| Reached  30% of maximal function calls                    12.9814409768
 POWELL| Reached  32% of maximal function calls                    12.9814409768
 POWELL| Reached  34% of maximal function calls                    12.9814409768
 POWELL| Reached  36% of maximal function calls                    12.9814409768
 POWELL| Reached  38% of maximal function calls                    12.9814409768
 POWELL| Reached  40% of maximal function calls                    12.9814409768
 POWELL| Reached  42% of maximal function calls                    12.9814409768
 POWELL| Reached  44% of maximal function calls                    12.9814409768
 POWELL| Reached  46% of maximal function calls                    12.9814409768
 POWELL| Reached  48% of maximal function calls                    12.9814409768
 POWELL| Reached  50% of maximal function calls                    12.9814409768
 POWELL| Reached  52% of maximal function calls                    12.9814409768
 POWELL| Reached  54% of maximal function calls                    12.9814409768
 POWELL| Reached  56% of maximal function calls                    12.9814409768
 POWELL| Reached  57% of maximal function calls                    12.9814409768
 POWELL| Reached  60% of maximal function calls                    12.9814409768
 POWELL| Reached  62% of maximal function calls                    12.9814409768
 POWELL| Reached  64% of maximal function calls                    12.9814409768
 POWELL| Reached  66% of maximal function calls                    12.9812953367
 POWELL| Reached  68% of maximal function calls                    12.9811638553
 POWELL| Reached  70% of maximal function calls                    12.9802712667
 POWELL| Reached  72% of maximal function calls                    12.9796318655
 POWELL| Reached  74% of maximal function calls                    12.9796318655
 POWELL| Reached  76% of maximal function calls                    12.9796084347
 POWELL| Reached  78% of maximal function calls                    12.9796084347
 POWELL| Reached  80% of maximal function calls                    12.9796084347
 POWELL| Reached  82% of maximal function calls                    12.9796084347
 POWELL| Reached  84% of maximal function calls                    12.9796067802
 POWELL| Reached  86% of maximal function calls                    12.9795445217
 POWELL| Reached  88% of maximal function calls                    12.9795442961
 POWELL| Reached  90% of maximal function calls                    12.9795431864
 POWELL| Reached  92% of maximal function calls                    12.9795431864
 POWELL| Reached  94% of maximal function calls                    12.9795431864
 POWELL| Reached  96% of maximal function calls                    12.9795431864
 POWELL| Reached  98% of maximal function calls                    12.9795431864
 POWELL| Reached 100% of maximal function calls                    12.9795416584
 POWELL| Reached 100% of maximal function calls                    12.9795416584
 POWELL| Exceeding maximum number of steps
 POWELL| Reached 100% of maximal function calls                    12.9795416584
 POWELL| RMS average of variables                                   0.0000016824
 POWELL| Start optimization  16 of total 100               rhobeg =   0.00029543
 POWELL| Inital value of function                                  12.9795416584
 POWELL| Reached   6% of maximal function calls                    12.9795416584
 POWELL| Reached   8% of maximal function calls                    12.9795416584
 POWELL| Reached  10% of maximal function calls                    12.9795416584
 POWELL| Reached  12% of maximal function calls                    12.9795416584
 POWELL| Reached  14% of maximal function calls                    12.9795416584
 POWELL| Reached  16% of maximal function calls                    12.9795416584
 POWELL| Reached  18% of maximal function calls                    12.9795416584
 POWELL| Reached  20% of maximal function calls                    12.9795416584
 POWELL| Reached  22% of maximal function calls                    12.9795416584
 POWELL| Reached  24% of maximal function calls                    12.9795416584
 POWELL| Reached  26% of maximal function calls                    12.9795416584
 POWELL| Reached  28% of maximal function calls                    12.9795416584
 POWELL| Reached  30% of maximal function calls                    12.9795416584
 POWELL| Reached  32% of maximal function calls                    12.9795416584
 POWELL| Reached  34% of maximal function calls                    12.9795416584
 POWELL| Reached  36% of maximal function calls                    12.9795416584
 POWELL| Reached  38% of maximal function calls                    12.9795416584
 POWELL| Reached  40% of maximal function calls                    12.9795416584
 POWELL| Reached  42% of maximal function calls                    12.9795416584
 POWELL| Reached  44% of maximal function calls                    12.9770566464
 POWELL| Reached  46% of maximal function calls                    12.9770566464
 POWELL| Reached  48% of maximal function calls                    12.9770566464
 POWELL| Reached  50% of maximal function calls                    12.9770566464
 POWELL| Reached  52% of maximal function calls                    12.9770566464
 POWELL| Reached  54% of maximal function calls                    12.9770566464
 POWELL| Reached  56% of maximal function calls                    12.9770566464
 POWELL| Reached  57% of maximal function calls                    12.9770566464
[...]
 POWELL| RMS average of variables                                   0.0000175723
 POWELL| Start optimization  98 of total 100               rhobeg =   0.00005636
 POWELL| Inital value of function                                  10.7896330053
 POWELL| Reached   6% of maximal function calls                    10.7896330053
 POWELL| Reached   8% of maximal function calls                    10.7896330053
 POWELL| Reached  10% of maximal function calls                    10.7896330053
 POWELL| Reached  12% of maximal function calls                    10.7896330053
 POWELL| Reached  14% of maximal function calls                    10.7818504430
 POWELL| Reached  16% of maximal function calls                    10.7818504430
 POWELL| Reached  18% of maximal function calls                    10.7818504430
 POWELL| Reached  20% of maximal function calls                    10.7818504430
 POWELL| Reached  22% of maximal function calls                    10.7721018151
 POWELL| Reached  24% of maximal function calls                    10.7721018151
 POWELL| Reached  26% of maximal function calls                    10.7721018151
 POWELL| Reached  28% of maximal function calls                    10.7721018151
 POWELL| Reached  30% of maximal function calls                    10.7721018151
 POWELL| Reached  32% of maximal function calls                    10.7721018151
 POWELL| Reached  34% of maximal function calls                    10.7721018151
 POWELL| Reached  36% of maximal function calls                    10.7721018151
 POWELL| Reached  38% of maximal function calls                    10.7721018151
 POWELL| Reached  40% of maximal function calls                    10.7721018151
 POWELL| Reached  42% of maximal function calls                    10.7721018151
 POWELL| Reached  44% of maximal function calls                    10.7721018151
 POWELL| Reached  46% of maximal function calls                    10.7721018151
 POWELL| Reached  48% of maximal function calls                    10.7721018151
 POWELL| Reached  50% of maximal function calls                    10.7721018151
 POWELL| Reached  52% of maximal function calls                    10.7721018151
 POWELL| Reached  54% of maximal function calls                    10.7721018151
 POWELL| Reached  56% of maximal function calls                    10.7721018151
 POWELL| Reached  57% of maximal function calls                    10.7710260442
 POWELL| Reached  60% of maximal function calls                    10.7706176254
 POWELL| Reached  62% of maximal function calls                    10.7706176254
 POWELL| Reached  64% of maximal function calls                    10.7706176254
 POWELL| Reached  66% of maximal function calls                    10.7706176254
 POWELL| Reached  68% of maximal function calls                    10.7706176254
 POWELL| Reached  70% of maximal function calls                    10.7706087410
 POWELL| Reached  72% of maximal function calls                    10.7705930229
 POWELL| Reached  74% of maximal function calls                    10.7705930229
 POWELL| Reached  76% of maximal function calls                    10.7705928942
 POWELL| Reached  78% of maximal function calls                    10.7705827135
 POWELL| Reached  80% of maximal function calls                    10.7705827135
 POWELL| Reached  82% of maximal function calls                    10.7705826903
 POWELL| Reached  84% of maximal function calls                    10.7705810732
 POWELL| Reached  86% of maximal function calls                    10.7705798127
 POWELL| Reached  88% of maximal function calls                    10.7705798127
 POWELL| Reached  90% of maximal function calls                    10.7705797663
 POWELL| Reached  92% of maximal function calls                    10.7705797663
 POWELL| Reached  94% of maximal function calls                    10.7705797663
 POWELL| Reached  96% of maximal function calls                    10.7705797429
 POWELL| Reached  98% of maximal function calls                    10.7705797400
 POWELL| Reached 100% of maximal function calls                    10.7705797400
 POWELL| Reached 100% of maximal function calls                    10.7705797276
 POWELL| Exceeding maximum number of steps
 POWELL| Reached 100% of maximal function calls                    10.7705797276
 POWELL| RMS average of variables                                   0.0000172771
 POWELL| Start optimization  99 of total 100               rhobeg =   0.00005524
 POWELL| Inital value of function                                  10.7705797276
 POWELL| Reached   6% of maximal function calls                    10.7705797276
 POWELL| Reached   8% of maximal function calls                    10.7705797276
 POWELL| Reached  10% of maximal function calls                    10.7705797276
 POWELL| Reached  12% of maximal function calls                    10.7705797276
 POWELL| Reached  14% of maximal function calls                    10.7642761661
 POWELL| Reached  16% of maximal function calls                    10.7642761661
 POWELL| Reached  18% of maximal function calls                    10.7642761661
 POWELL| Reached  20% of maximal function calls                    10.7642761661
 POWELL| Reached  22% of maximal function calls                    10.7622046855
 POWELL| Reached  24% of maximal function calls                    10.7622046855
 POWELL| Reached  26% of maximal function calls                    10.7622046855
 POWELL| Reached  28% of maximal function calls                    10.7622046855
 POWELL| Reached  30% of maximal function calls                    10.7622046855
 POWELL| Reached  32% of maximal function calls                    10.7622046855
 POWELL| Reached  34% of maximal function calls                    10.7622046855
 POWELL| Reached  36% of maximal function calls                    10.7622046855
 POWELL| Reached  38% of maximal function calls                    10.7598498157
 POWELL| Reached  40% of maximal function calls                    10.7598498157
 POWELL| Reached  42% of maximal function calls                    10.7598498157
 POWELL| Reached  44% of maximal function calls                    10.7598498157
 POWELL| Reached  46% of maximal function calls                    10.7598498157
 POWELL| Reached  48% of maximal function calls                    10.7598498157
 POWELL| Reached  50% of maximal function calls                    10.7598498157
 POWELL| Reached  52% of maximal function calls                    10.7598498157
 POWELL| Reached  54% of maximal function calls                    10.7598498157
 POWELL| Reached  56% of maximal function calls                    10.7598498157
 POWELL| Reached  57% of maximal function calls                    10.7598498157
 POWELL| Reached  60% of maximal function calls                    10.7598498157
 POWELL| Reached  62% of maximal function calls                    10.7598498157
 POWELL| Reached  64% of maximal function calls                    10.7598498157
 POWELL| Reached  66% of maximal function calls                    10.7595911152
 POWELL| Reached  68% of maximal function calls                    10.7595911152
 POWELL| Reached  70% of maximal function calls                    10.7582651925
 POWELL| Reached  72% of maximal function calls                    10.7573415428
 POWELL| Reached  74% of maximal function calls                    10.7573249894
 POWELL| Reached  76% of maximal function calls                    10.7573249894
 POWELL| Reached  78% of maximal function calls                    10.7573249894
 POWELL| Reached  80% of maximal function calls                    10.7573249894
 POWELL| Reached  82% of maximal function calls                    10.7573226331
 POWELL| Reached  84% of maximal function calls                    10.7573150314
 POWELL| Reached  86% of maximal function calls                    10.7573150314
 POWELL| Reached  88% of maximal function calls                    10.7573150314
 POWELL| Reached  90% of maximal function calls                    10.7573150314
 POWELL| Reached  92% of maximal function calls                    10.7573068446
 POWELL| Reached  94% of maximal function calls                    10.7573029307
 POWELL| Reached  96% of maximal function calls                    10.7573029307
 POWELL| Reached  98% of maximal function calls                    10.7573004361
 POWELL| Reached 100% of maximal function calls                    10.7573004361
 POWELL| Reached 100% of maximal function calls                    10.7572918159
 POWELL| Exceeding maximum number of steps
 POWELL| Reached 100% of maximal function calls                    10.7572918159
 POWELL| RMS average of variables                                   0.0000153295
 POWELL| Start optimization 100 of total 100               rhobeg =   0.00005413
 POWELL| Inital value of function                                  10.7572918159
 POWELL| Reached   6% of maximal function calls                    10.7572918159
 POWELL| Reached   8% of maximal function calls                    10.7572918159
 POWELL| Reached  10% of maximal function calls                    10.7572918159
 POWELL| Reached  12% of maximal function calls                    10.7572918159
 POWELL| Reached  14% of maximal function calls                    10.7344247659
 POWELL| Reached  16% of maximal function calls                    10.7344247659
 POWELL| Reached  18% of maximal function calls                    10.7344247659
 POWELL| Reached  20% of maximal function calls                    10.7344247659
 POWELL| Reached  22% of maximal function calls                    10.7067847541
 POWELL| Reached  24% of maximal function calls                    10.7067847541
 POWELL| Reached  26% of maximal function calls                    10.7067847541
 POWELL| Reached  28% of maximal function calls                    10.7067847541
 POWELL| Reached  30% of maximal function calls                    10.7067847541
 POWELL| Reached  32% of maximal function calls                    10.6923777365
 POWELL| Reached  34% of maximal function calls                    10.6923777365
 POWELL| Reached  36% of maximal function calls                    10.6923777365
 POWELL| Reached  38% of maximal function calls                    10.6923777365
 POWELL| Reached  40% of maximal function calls                    10.6923777365
 POWELL| Reached  42% of maximal function calls                    10.6923777365
 POWELL| Reached  44% of maximal function calls                    10.6923777365
 POWELL| Reached  46% of maximal function calls                    10.6923777365
 POWELL| Reached  48% of maximal function calls                    10.6923777365
 POWELL| Reached  50% of maximal function calls                    10.6923777365
 POWELL| Reached  52% of maximal function calls                    10.6923777365
 POWELL| Reached  54% of maximal function calls                    10.6923777365
 POWELL| Reached  56% of maximal function calls                    10.6923777365
 POWELL| Reached  57% of maximal function calls                    10.6923777365
 POWELL| Reached  60% of maximal function calls                    10.6920156107
 POWELL| Reached  62% of maximal function calls                    10.6920156107
 POWELL| Reached  64% of maximal function calls                    10.6918412113
 POWELL| Reached  66% of maximal function calls                    10.6918412113
 POWELL| Reached  68% of maximal function calls                    10.6918412113
 POWELL| Reached  70% of maximal function calls                    10.6918402489
 POWELL| Reached  72% of maximal function calls                    10.6918402489
 POWELL| Reached  74% of maximal function calls                    10.6918402489
 POWELL| Reached  76% of maximal function calls                    10.6918402489
 POWELL| Reached  78% of maximal function calls                    10.6918402489
 POWELL| Reached  80% of maximal function calls                    10.6918402489
 POWELL| Reached  82% of maximal function calls                    10.6918387032
 POWELL| Reached  84% of maximal function calls                    10.6918387032
 POWELL| Reached  86% of maximal function calls                    10.6918387032
 POWELL| Reached  88% of maximal function calls                    10.6918387032
 POWELL| Reached  90% of maximal function calls                    10.6918268313
 POWELL| Reached  92% of maximal function calls                    10.6918268313
 POWELL| Reached  94% of maximal function calls                    10.6918086402
 POWELL| Reached  96% of maximal function calls                    10.6918086402
 POWELL| Reached  98% of maximal function calls                    10.6918082767
 POWELL| Reached 100% of maximal function calls                    10.6918082767
 POWELL| Reached 100% of maximal function calls                    10.6918052436
 POWELL| Exceeding maximum number of steps
 POWELL| Reached 100% of maximal function calls                    10.6918052436
 POWELL| RMS average of variables                                   0.0000150876
 POWELL| Number of function evaluations                                       50
 POWELL| Final value of function                                   10.6918052436

 POWELL| Final errors of target values

 Reference configuration          1               Method number                1
    L    N    Occupation      Eigenvalue [eV]           dE [eV]          dCharge 
    0    1          2.00       -85.8339033349 SC  -0.016418[ 8]    -0.000033[ X]
    0    2          2.00        -5.0971537447 VA   0.002507[52]     0.001224[ 0]
    0    3          0.00         0.9901987447 U1  -0.002445[ X]     0.000536[ X]
    0    4          0.00         7.0022517320 U2  -0.012080[ X]     0.001137[ 0]
    1    1          6.00       -54.5439028985 SC   0.006215[ 0]    -0.000155[ X]
    1    2          0.00        -1.2823744253 U1   0.044873[38]    -0.005306[ 0]
    1    3          0.00         2.5754728206 U2   0.037134[ 0]    -0.001622[ 0]
    2    1          5.00        -6.7664667454 VA   0.000659[ 1]    -0.000302[ 0]
    2    2          0.00         1.8823836111 U1   0.002011[ X]    -0.000085[ X]
    2    3          0.00         6.3230417855 U2   0.008158[ X]    -0.001082[ 0]
    3    1          0.00         4.0613120320 U1   0.000500[ X]    -0.000007[ X]
    s-states N=    1                   Wavefunction at r=0:        -0.013451[ 0]
    s-states N=    2                   Wavefunction at r=0:        -0.191642[ 0]
    s-states N=    3                   Wavefunction at r=0:         0.109214[ 0]
    s-states N=    4                   Wavefunction at r=0:        -0.178397[ 0]

 Number of target values reached:                                      10 of  19



                             NORMAL TERMINATION OF     
                                                       
                           ****  ******  ****   ****   
                          **  ** ****** **  ** ******  
                          ******   **   **  ** **  **  
                          **  **   **    ****  **  **  


 -------------------------------------------------------------------------------
 -                                                                             -
 -                                DBCSR STATISTICS                             -
 -                                                                             -
 -------------------------------------------------------------------------------
 COUNTER                                    TOTAL       BLAS       SMM       ACC
 flops inhomo. stacks                           0       0.0%      0.0%      0.0%
 flops total                         0.000000E+00       0.0%      0.0%      0.0%
 flops max/rank                      0.000000E+00       0.0%      0.0%      0.0%
 matmuls inhomo. stacks                         0       0.0%      0.0%      0.0%
 matmuls total                                  0       0.0%      0.0%      0.0%
 number of processed stacks                     0       0.0%      0.0%      0.0%
 average stack size                                     0.0       0.0       0.0
 marketing flops                     0.000000E+00
 -------------------------------------------------------------------------------

 MEMORY| Estimated peak process memory [MiB]                                  47

 -------------------------------------------------------------------------------
 -                                                                             -
 -                           R E F E R E N C E S                               -
 -                                                                             -
 -------------------------------------------------------------------------------
 
 CP2K version 7.0 (Development Version), the CP2K developers group (2018).
 CP2K is freely available from https://www.cp2k.org/ .

 Schuett, Ole; Messmer, Peter; Hutter, Juerg; VandeVondele, Joost. 
 Electronic Structure Calculations on Graphics Processing Units, John Wiley & Sons, Ltd, 173-190 (2016). 
 GPU-Accelerated Sparse Matrix-Matrix Multiplication for Linear Scaling Density Functional Theory.
 http://dx.doi.org/10.1002/9781118670712.ch8


 Borstnik, U; VandeVondele, J; Weber, V; Hutter, J. 
 PARALLEL COMPUTING, 40 (5-6), 47-58 (2014). 
 Sparse matrix multiplication: The distributed block-compressed sparse
 row library.
 http://dx.doi.org/10.1016/j.parco.2014.03.012


 Hutter, J; Iannuzzi, M; Schiffmann, F; VandeVondele, J. 
 WILEY INTERDISCIPLINARY REVIEWS-COMPUTATIONAL MOLECULAR SCIENCE, 4 (1), 15-25 (2014). 
 CP2K: atomistic simulations of condensed matter systems.
 http://dx.doi.org/10.1002/wcms.1159


 Frigo, M; Johnson, SG. 
 PROCEEDINGS OF THE IEEE, 93 (2), 216-231 (2005). 
 The design and implementation of FFTW3.
 http://dx.doi.org/10.1109/JPROC.2004.840301


 Perdew, JP; Burke, K; Ernzerhof, M. 
 PHYSICAL REVIEW LETTERS, 77 (18), 3865-3868 (1996). 
 Generalized gradient approximation made simple.
 http://dx.doi.org/10.1103/PhysRevLett.77.3865


 -------------------------------------------------------------------------------
 -                                                                             -
 -                                T I M I N G                                  -
 -                                                                             -
 -------------------------------------------------------------------------------
 SUBROUTINE                       CALLS  ASD         SELF TIME        TOTAL TIME
                                MAXIMUM       AVERAGE  MAXIMUM  AVERAGE  MAXIMUM
 CP2K                                 1  1.0    0.003    0.003 3446.094 3446.094
 atom_code                            1  2.0    0.000    0.000 3446.091 3446.091
 atom_pseudo_opt                      1  3.0    8.640    8.640 3446.091 3446.091
 calculate_atom                    7933  4.0    0.022    0.022 3432.319 3432.319
 calculate_atom_restricted         7933  5.0 1200.079 1200.079 3432.297 3432.297
 calculate_atom_vxc_lda          715728  6.0 2087.832 2087.832 2232.218 2232.218
 xc_functional_eval              715728  7.0    1.690    1.690  143.644  143.644
 pbe_lda_eval                    715728  8.0  141.953  141.953  141.953  141.953
 -------------------------------------------------------------------------------

 The number of warnings for this run is : 0
 
 -------------------------------------------------------------------------------
  **** **** ******  **  PROGRAM ENDED AT                 2018-06-24 21:48:48.781
 ***** ** ***  *** **   PROGRAM RAN ON                                    tcpc01
 **    ****   ******    PROGRAM RAN BY                                    hutter
 ***** **    ** ** **   PROGRAM PROCESS ID                                  2757
  **** **  *******  **  PROGRAM STOPPED IN /data/hutter/pseudo/UZH2018/PBE/Mn/q1
                                           5
